 vasp.5.4.1 05Feb16 (build Jan 29 2020 16:04:39) complex                        
  
 executed on           IFC91_ompi date 2020.06.09  03:11:06
 running on  160 total cores
 distrk:  each k-point on   20 cores,    8 groups
 distr:  one band on NCORES_PER_BAND=   5 cores,    4 groups


--------------------------------------------------------------------------------------------------------


 INCAR:
 POTCAR:    PAW_PBE Hf 20Jan2003                  
 POTCAR:    PAW_PBE Zr_sv 04Jan2005               
 POTCAR:    PAW_PBE Nb_sv 25May2007               
 POTCAR:    PAW_PBE Ta 17Jan2003                  

 ----------------------------------------------------------------------------- 
|                                                                             |
|           W    W    AA    RRRRR   N    N  II  N    N   GGGG   !!!           |
|           W    W   A  A   R    R  NN   N  II  NN   N  G    G  !!!           |
|           W    W  A    A  R    R  N N  N  II  N N  N  G       !!!           |
|           W WW W  AAAAAA  RRRRR   N  N N  II  N  N N  G  GGG   !            |
|           WW  WW  A    A  R   R   N   NN  II  N   NN  G    G                |
|           W    W  A    A  R    R  N    N  II  N    N   GGGG   !!!           |
|                                                                             |
|      For optimal performance we recommend to set                            |
|        NCORE= 4 - approx SQRT( number of cores)                             |
|      NCORE specifies how many cores store one orbital (NPAR=cpu/NCORE).     |
|      This setting can  greatly improve the performance of VASP for DFT.     |
|      The default, NPAR=number of cores might be grossly inefficient         |
|      on modern multi-core architectures or massively parallel machines.     |
|      Do your own testing !!!!                                               |
|      Unfortunately you need to use the default for GW and RPA calculations. |
|      (for HF NCORE is supported but not extensively tested yet)             |
|                                                                             |
 ----------------------------------------------------------------------------- 


 ----------------------------------------------------------------------------- 
|                                                                             |
|           W    W    AA    RRRRR   N    N  II  N    N   GGGG   !!!           |
|           W    W   A  A   R    R  NN   N  II  NN   N  G    G  !!!           |
|           W    W  A    A  R    R  N N  N  II  N N  N  G       !!!           |
|           W WW W  AAAAAA  RRRRR   N  N N  II  N  N N  G  GGG   !            |
|           WW  WW  A    A  R   R   N   NN  II  N   NN  G    G                |
|           W    W  A    A  R    R  N    N  II  N    N   GGGG   !!!           |
|                                                                             |
|      You have enabled k-point parallelism (KPAR>1).                         |
|      This developmental code was originally  written by Paul Kent at ORNL,  |
|      and carefully double checked in Vienna.                                |
|      GW as well as linear response parallelism added by Martijn Marsman     |
|      and Georg Kresse.                                                      |
|      Carefully verify results versus KPAR=1.                                |
|      Report problems to Paul Kent and Vienna.                               |
|                                                                             |
 ----------------------------------------------------------------------------- 

 POTCAR:    PAW_PBE Hf 20Jan2003                  
   VRHFIN =Hf: 6s5d                                                             
   LEXCH  = PE                                                                  
   EATOM  =    75.9011 eV,    5.5786 Ry                                         
                                                                                
   TITEL  = PAW_PBE Hf 20Jan2003                                                
   LULTRA =        F    use ultrasoft PP ?                                      
   IUNSCR =        1    unscreen: 0-lin 1-nonlin 2-no                           
   RPACOR =    2.500    partial core radius                                     
   POMASS =  178.490; ZVAL   =    4.000    mass and valenz                      
   RCORE  =    3.000    outmost cutoff radius                                   
   RWIGS  =    3.050; RWIGS  =    1.614    wigner-seitz radius (au A)           
   ENMAX  =  220.334; ENMIN  =  165.250 eV                                      
   RCLOC  =    2.212    cutoff for local pot                                    
   LCOR   =        T    correct aug charges                                     
   LPAW   =        T    paw PP                                                  
   EAUG   =  335.116                                                            
   DEXC   =    0.000                                                            
   RMAX   =    3.077    core radius for proj-oper                               
   RAUG   =    1.300    factor for augmentation sphere                          
   RDEP   =    3.047    radius for radial grids                                 
   RDEPT  =    2.344    core radius for aug-charge                              
                                                                                
   Atomic configuration                                                         
   16 entries                                                                   
     n  l   j            E        occ.                                          
     1  0  0.50    -65259.4397   2.0000                                         
     2  0  0.50    -11157.9882   2.0000                                         
     2  1  1.50     -9795.2113   6.0000                                         
     3  0  0.50     -2541.4058   2.0000                                         
     3  1  1.50     -2134.4770   6.0000                                         
     3  2  2.50     -1653.5418  10.0000                                         
     4  0  0.50      -510.9575   2.0000                                         
     4  1  1.50      -377.5023   6.0000                                         
     4  2  2.50      -205.2085  10.0000                                         
     4  3  3.50       -15.4905  14.0000                                         
     5  0  0.50       -65.6020   2.0000                                         
     5  1  1.50       -34.2798   6.0000                                         
     5  2  2.50        -1.9877   3.0000                                         
     6  0  0.50        -4.7357   1.0000                                         
     6  1  1.50        -1.3606   0.0000                                         
     5  3  2.50        -1.3606   0.0000                                         
   Description                                                                  
     l       E           TYP  RCUT    TYP  RCUT                                 
     2     -1.9876627     23  2.500                                             
     2      0.0744703     23  2.500                                             
     0     -4.7356889     23  2.600                                             
     0      3.2364747     23  2.600                                             
     1     -1.3605826     23  3.000                                             
     1     27.2116520     23  3.000                                             
  local pseudopotential read in
  partial core-charges read in
  partial kinetic energy density read in
  atomic valenz-charges read in
  non local Contribution for L=           2  read in
    real space projection operators read in
  non local Contribution for L=           2  read in
    real space projection operators read in
  non local Contribution for L=           0  read in
    real space projection operators read in
  non local Contribution for L=           0  read in
    real space projection operators read in
  non local Contribution for L=           1  read in
    real space projection operators read in
  non local Contribution for L=           1  read in
    real space projection operators read in
    PAW grid and wavefunctions read in
 
   number of l-projection  operators is LMAX  =           6
   number of lm-projection operators is LMMAX =          18
 
 POTCAR:    PAW_PBE Zr_sv 04Jan2005               
   VRHFIN =Zr: 4s4p5s4d                                                         
   LEXCH  = PE                                                                  
   EATOM  =  1284.2219 eV,   94.3876 Ry                                         
                                                                                
   TITEL  = PAW_PBE Zr_sv 04Jan2005                                             
   LULTRA =        F    use ultrasoft PP ?                                      
   IUNSCR =        1    unscreen: 0-lin 1-nonlin 2-no                           
   RPACOR =    2.200    partial core radius                                     
   POMASS =   91.224; ZVAL   =   12.000    mass and valenz                      
   RCORE  =    2.500    outmost cutoff radius                                   
   RWIGS  =    3.070; RWIGS  =    1.625    wigner-seitz radius (au A)           
   ENMAX  =  229.898; ENMIN  =  172.424 eV                                      
   ICORE  =        3    local potential                                         
   LCOR   =        T    correct aug charges                                     
   LPAW   =        T    paw PP                                                  
   EAUG   =  461.257                                                            
   DEXC   =    0.000                                                            
   RMAX   =    2.561    core radius for proj-oper                               
   RAUG   =    1.300    factor for augmentation sphere                          
   RDEP   =    2.597    radius for radial grids                                 
   RDEPT  =    2.007    core radius for aug-charge                              
                                                                                
   Atomic configuration                                                         
   11 entries                                                                   
     n  l   j            E        occ.                                          
     1  0  0.50    -17820.0161   2.0000                                         
     2  0  0.50     -2467.0882   2.0000                                         
     2  1  1.50     -2199.6095   6.0000                                         
     3  0  0.50      -402.4863   2.0000                                         
     3  1  1.50      -315.3675   6.0000                                         
     3  2  2.50      -172.4472  10.0000                                         
     4  0  0.50       -52.4146   2.0000                                         
     5  0  0.50        -3.8421   1.0000                                         
     4  1  1.50       -30.5054   6.0000                                         
     4  2  2.50        -2.3341   3.0000                                         
     4  3  2.50        -1.3606   0.0000                                         
   Description                                                                  
     l       E           TYP  RCUT    TYP  RCUT                                 
     0    -52.4145962     23  2.200                                             
     0     -3.8421270     23  2.500                                             
     1    -30.5053914     23  2.200                                             
     1     20.4087390     23  2.200                                             
     2     -2.3340816     23  2.500                                             
     2     -0.6120942     23  2.500                                             
     3     -4.0817478     23  2.500                                             
  local pseudopotential read in
  partial core-charges read in
  partial kinetic energy density read in
  atomic valenz-charges read in
  non local Contribution for L=           0  read in
    real space projection operators read in
  non local Contribution for L=           0  read in
    real space projection operators read in
  non local Contribution for L=           1  read in
    real space projection operators read in
  non local Contribution for L=           1  read in
    real space projection operators read in
  non local Contribution for L=           2  read in
    real space projection operators read in
  non local Contribution for L=           2  read in
    real space projection operators read in
    PAW grid and wavefunctions read in
 
   number of l-projection  operators is LMAX  =           6
   number of lm-projection operators is LMMAX =          18
 
 POTCAR:    PAW_PBE Nb_sv 25May2007               
   VRHFIN =Nb: 4p5s4d                                                           
   LEXCH  = PE                                                                  
   EATOM  =  1555.1913 eV,  114.3033 Ry                                         
                                                                                
   TITEL  = PAW_PBE Nb_sv 25May2007                                             
   LULTRA =        F    use ultrasoft PP ?                                      
   IUNSCR =        1    unscreen: 0-lin 1-nonlin 2-no                           
   RPACOR =    1.800    partial core radius                                     
   POMASS =   92.910; ZVAL   =   13.000    mass and valenz                      
   RCORE  =    2.400    outmost cutoff radius                                   
   RWIGS  =    2.400; RWIGS  =    1.270    wigner-seitz radius (au A)           
   ENMAX  =  293.235; ENMIN  =  219.927 eV                                      
   ICORE  =        3    local potential                                         
   LCOR   =        T    correct aug charges                                     
   LPAW   =        T    paw PP                                                  
   EAUG   =  455.659                                                            
   DEXC   =    0.000                                                            
   RMAX   =    2.456    core radius for proj-oper                               
   RAUG   =    1.300    factor for augmentation sphere                          
   RDEP   =    2.451    radius for radial grids                                 
   RDEPT  =    1.956    core radius for aug-charge                              
                                                                                
   Atomic configuration                                                         
   11 entries                                                                   
     n  l   j            E        occ.                                          
     1  0  0.50    -18805.2457   2.0000                                         
     2  0  0.50     -2630.2869   2.0000                                         
     2  1  1.50     -2348.4046   6.0000                                         
     3  0  0.50      -438.8757   2.0000                                         
     3  1  1.50      -346.7588   6.0000                                         
     3  2  2.50      -196.2560  10.0000                                         
     4  0  0.50       -58.3859   2.0000                                         
     5  0  0.50        -3.9816   1.0000                                         
     4  1  1.50       -34.5141   6.0000                                         
     4  2  2.50        -3.0408   4.0000                                         
     4  3  2.50        -1.3606   0.0000                                         
   Description                                                                  
     l       E           TYP  RCUT    TYP  RCUT                                 
     0    -58.3859094     23  2.200                                             
     0     -3.9816262     23  2.200                                             
     1    -34.5140738     23  2.200                                             
     1     13.6058260     23  2.200                                             
     2     -3.0408010     23  2.200                                             
     2     -0.1283038     23  2.200                                             
     3     -1.3605826     23  2.400                                             
  local pseudopotential read in
  partial core-charges read in
  partial kinetic energy density read in
  atomic valenz-charges read in
  non local Contribution for L=           0  read in
    real space projection operators read in
  non local Contribution for L=           0  read in
    real space projection operators read in
  non local Contribution for L=           1  read in
    real space projection operators read in
  non local Contribution for L=           1  read in
    real space projection operators read in
  non local Contribution for L=           2  read in
    real space projection operators read in
  non local Contribution for L=           2  read in
    real space projection operators read in
    PAW grid and wavefunctions read in
 
   number of l-projection  operators is LMAX  =           6
   number of lm-projection operators is LMMAX =          18
 
 POTCAR:    PAW_PBE Ta 17Jan2003                  
   VRHFIN =Ta:  6s5d                                                            
   LEXCH  = PE                                                                  
   EATOM  =   130.6506 eV,    9.6025 Ry                                         
                                                                                
   TITEL  = PAW_PBE Ta 17Jan2003                                                
   LULTRA =        F    use ultrasoft PP ?                                      
   IUNSCR =        1    unscreen: 0-lin 1-nonlin 2-no                           
   RPACOR =    2.330    partial core radius                                     
   POMASS =  180.948; ZVAL   =    5.000    mass and valenz                      
   RCORE  =    2.900    outmost cutoff radius                                   
   RWIGS  =    2.840; RWIGS  =    1.503    wigner-seitz radius (au A)           
   ENMAX  =  223.667; ENMIN  =  167.750 eV                                      
   RCLOC  =    2.205    cutoff for local pot                                    
   LCOR   =        T    correct aug charges                                     
   LPAW   =        T    paw PP                                                  
   EAUG   =  332.075                                                            
   DEXC   =    0.000                                                            
   RMAX   =    2.970    core radius for proj-oper                               
   RAUG   =    1.300    factor for augmentation sphere                          
   RDEP   =    3.060    radius for radial grids                                 
   RDEPT  =    2.354    core radius for aug-charge                              
                                                                                
   Atomic configuration                                                         
   16 entries                                                                   
     n  l   j            E        occ.                                          
     1  0  0.50    -67341.2807   2.0000                                         
     2  0  0.50    -11566.9376   2.0000                                         
     2  1  1.50    -10134.1182   6.0000                                         
     3  0  0.50     -2648.5620   2.0000                                         
     3  1  1.50     -2222.6012   6.0000                                         
     3  2  2.50     -1726.3120  10.0000                                         
     4  0  0.50      -538.6961   2.0000                                         
     4  1  1.50      -399.0129   6.0000                                         
     4  2  2.50      -220.3959  10.0000                                         
     4  3  3.50       -23.0374  14.0000                                         
     5  0  0.50       -71.2901   2.0000                                         
     5  1  1.50       -37.8225   6.0000                                         
     5  2  2.50        -2.6455   4.0000                                         
     6  0  0.50        -4.9623   1.0000                                         
     6  1  1.50        -1.3606   0.0000                                         
     5  3  2.50        -1.3606   0.0000                                         
   Description                                                                  
     l       E           TYP  RCUT    TYP  RCUT                                 
     2     -2.6455043     23  2.500                                             
     2     -0.6258895     23  2.500                                             
     0     -4.9622780     23  2.500                                             
     0      4.7531321     23  2.500                                             
     1     -1.3605826     23  2.900                                             
     1     27.2116520     23  2.900                                             
  local pseudopotential read in
  partial core-charges read in
  partial kinetic energy density read in
  atomic valenz-charges read in
  non local Contribution for L=           2  read in
    real space projection operators read in
  non local Contribution for L=           2  read in
    real space projection operators read in
  non local Contribution for L=           0  read in
    real space projection operators read in
  non local Contribution for L=           0  read in
    real space projection operators read in
  non local Contribution for L=           1  read in
    real space projection operators read in
  non local Contribution for L=           1  read in
    real space projection operators read in
    PAW grid and wavefunctions read in
 
   number of l-projection  operators is LMAX  =           6
   number of lm-projection operators is LMMAX =          18
 
 Optimization of the real space projectors (new method)

 maximal supplied QI-value         = 12.47
 optimisation between [QCUT,QGAM] = [  8.86, 17.71] = [ 21.96, 87.83] Ry 
 Optimized for a Real-space Cutoff    1.90 Angstroem

   l    n(q)    QCUT    max X(q) W(low)/X(q) W(high)/X(q)  e(spline) 
   2      9     8.855    48.111    0.22E-03    0.80E-04    0.10E-05
   2      9     8.855    40.545    0.21E-03    0.76E-04    0.95E-06
   0     10     8.855   121.658    0.27E-04    0.12E-04    0.11E-06
   0     10     8.855    71.177    0.22E-04    0.11E-04    0.99E-07
   1     10     8.855    14.183    0.65E-04    0.10E-03    0.98E-07
   1     10     8.855     8.257    0.43E-04    0.73E-04    0.72E-07
 Optimization of the real space projectors (new method)

 maximal supplied QI-value         = 15.12
 optimisation between [QCUT,QGAM] = [  8.77, 17.69] = [ 21.53, 87.61] Ry 
 Optimized for a Real-space Cutoff    1.74 Angstroem

   l    n(q)    QCUT    max X(q) W(low)/X(q) W(high)/X(q)  e(spline) 
   0      9     8.768    12.107    0.28E-04    0.53E-06    0.29E-07
   0      9     8.768     9.948    0.36E-04    0.50E-05    0.64E-07
   1      9     8.768     3.563    0.14E-04    0.16E-04    0.88E-07
   1      9     8.768     4.524    0.21E-03    0.33E-03    0.19E-06
   2      8     8.768    87.261    0.19E-03    0.25E-03    0.24E-06
   2      8     8.768    70.950    0.19E-03    0.24E-03    0.24E-06
 Optimization of the real space projectors (new method)

 maximal supplied QI-value         = 15.68
 optimisation between [QCUT,QGAM] = [  8.78, 17.72] = [ 21.60, 87.97] Ry 
 Optimized for a Real-space Cutoff    1.96 Angstroem

   l    n(q)    QCUT    max X(q) W(low)/X(q) W(high)/X(q)  e(spline) 
   0     10     8.783    10.201    0.29E-04    0.25E-05    0.69E-07
   0     10     8.783     8.174    0.45E-04    0.57E-05    0.14E-06
   1     10     8.783     3.488    0.76E-05    0.24E-04    0.95E-07
   1     10     8.783     4.917    0.78E-04    0.14E-03    0.46E-06
   2      9     8.783   153.744    0.22E-03    0.34E-04    0.15E-05
   2      9     8.783   126.342    0.22E-03    0.35E-04    0.15E-05
 Optimization of the real space projectors (new method)

 maximal supplied QI-value         = 12.85
 optimisation between [QCUT,QGAM] = [  8.87, 17.73] = [ 22.01, 88.06] Ry 
 Optimized for a Real-space Cutoff    1.90 Angstroem

   l    n(q)    QCUT    max X(q) W(low)/X(q) W(high)/X(q)  e(spline) 
   2      9     8.867    62.315    0.23E-03    0.62E-04    0.11E-05
   2      9     8.867    52.185    0.23E-03    0.62E-04    0.11E-05
   0     10     8.867   103.837    0.15E-04    0.23E-04    0.98E-07
   0     10     8.867    59.728    0.12E-04    0.21E-04    0.89E-07
   1     10     8.867    13.958    0.50E-04    0.22E-04    0.14E-06
   1     10     8.867     8.441    0.36E-04    0.19E-04    0.98E-07
  PAW_PBE Hf 20Jan2003                  :
 energy of atom  1       EATOM=  -75.9011
 kinetic energy error for atom=    0.0071 (will be added to EATOM!!)
  PAW_PBE Zr_sv 04Jan2005               :
 energy of atom  2       EATOM=-1284.2219
 kinetic energy error for atom=    0.0483 (will be added to EATOM!!)
  PAW_PBE Nb_sv 25May2007               :
 energy of atom  3       EATOM=-1555.1913
 kinetic energy error for atom=    0.0655 (will be added to EATOM!!)
  PAW_PBE Ta 17Jan2003                  :
 energy of atom  4       EATOM= -130.6506
 kinetic energy error for atom=    0.0121 (will be added to EATOM!!)
 
 
 POSCAR: generated by pypospack                  
  positions in direct lattice
  No initial velocities read in
 exchange correlation table for  LEXCH =        8
   RHO(1)=    0.500       N(1)  =     2000
   RHO(2)=  100.500       N(2)  =     4000
 


--------------------------------------------------------------------------------------------------------


 ion  position               nearest neighbor table
   1  0.472  0.341  0.990-  31 2.99  14 2.99  12 3.00  13 3.04   9 3.06   8 3.08   3 3.10  11 3.11
                             6 3.15  16 3.42  17 3.46  15 3.73  13 3.87
   2  0.012  0.989  1.000-  33 2.88  36 2.93  25 2.98  19 3.02  12 3.07   8 3.08   3 3.13   6 3.15
                            32 3.22  15 3.34  20 3.45  22 3.45  13 3.54  15 3.58
   3  0.239  0.176  0.186-  20 2.90  29 2.98  34 3.01   7 3.01  13 3.04   1 3.10   2 3.13  21 3.14
                            15 3.17  14 3.29   6 3.34   6 3.58  33 3.59  12 3.81
   4  0.005  0.334  0.660-  30 2.96  21 2.99  35 2.99  26 3.00  31 3.05  29 3.07   9 3.09   8 3.13
                            12 3.18  13 3.28  22 3.34  24 3.35  16 3.40  16 3.50
   5  0.238  0.833  0.504-  27 2.92  22 2.94  24 2.95  28 2.98  23 2.98  20 3.02  10 3.05   7 3.07
                            25 3.22  33 3.28  18 3.30  30 3.34  21 3.39  18 3.60
   6  0.756  0.181  0.167-  20 2.98  29 3.01  34 3.04   7 3.09  15 3.12  13 3.14   2 3.15   1 3.15
                            11 3.22   3 3.34  26 3.38   8 3.43   3 3.58  36 3.68
   7  0.507  0.993  0.329-  26 2.96  21 3.00   3 3.01  18 3.04  33 3.04  36 3.05   5 3.07   6 3.09
                            15 3.19  27 3.22  10 3.32  20 3.34  34 3.54
   8  0.741  0.160  0.834-  22 2.96  27 3.01  13 3.06   1 3.08   2 3.08  16 3.08   4 3.13  15 3.15
                            12 3.20  19 3.36   6 3.43   9 3.60  12 3.72
   9  0.755  0.510  0.836-  24 2.89  32 2.96  28 2.99  13 3.03   1 3.06  17 3.08   4 3.09  16 3.10
                            19 3.34  31 3.38  11 3.41  35 3.46  31 3.54   8 3.60
  10  0.503  0.671  0.330-  35 2.98  33 2.98  36 2.98  30 3.00  14 3.01  18 3.03  11 3.04   5 3.05
                            17 3.29   7 3.32  23 3.38  28 3.42  34 3.45
  11  0.759  0.493  0.167-  23 2.93  29 3.03  10 3.04  34 3.06  32 3.09   1 3.11  17 3.11  13 3.18
                             6 3.22  14 3.29  36 3.40   9 3.41  35 3.42  14 3.62
  12  0.279  0.143  0.818-  27 2.76  22 2.81   1 3.00  16 3.02  15 3.05  13 3.06   2 3.07   4 3.18
                             8 3.20  25 3.24  21 3.37   8 3.72   3 3.81
  13  0.033  0.332  0.978-  31 2.93  14 3.00   9 3.03   1 3.04   3 3.04   8 3.06  12 3.06   6 3.14
                            11 3.18   4 3.28   2 3.54  32 3.55   1 3.87
  14  0.236  0.495  0.180-  23 2.89   1 2.99  13 3.00  10 3.01  29 3.03  34 3.05  32 3.06  17 3.11
                            30 3.27   3 3.29  11 3.29  33 3.43  11 3.62  31 3.68
  15  0.495  0.981  0.019-  36 3.02  12 3.05  33 3.05  19 3.09   6 3.12  25 3.13  17 3.13   8 3.15
                             3 3.17   7 3.19   2 3.34   2 3.58   1 3.73
  16  0.498  0.338  0.657-  35 2.96  30 2.97  12 3.02  21 3.02  26 3.03   8 3.08  31 3.10   9 3.10
                            34 3.13  28 3.29   4 3.40  27 3.42   1 3.42   4 3.50
  17  0.489  0.677  0.010-  31 3.01  36 3.04  25 3.04  33 3.06   9 3.08  19 3.10  14 3.11  11 3.11
                            15 3.13  10 3.29  32 3.31   1 3.46  32 3.60
  18  0.760  0.832  0.508-  27 2.88  23 2.96  22 2.97  24 2.97  20 2.99  10 3.03   7 3.04  28 3.04
                            19 3.22   5 3.30  35 3.34  26 3.40  36 3.46   5 3.60
  19  0.751  0.834  0.822-  24 2.97  22 3.00   2 3.02  32 3.03  28 3.04  27 3.08  15 3.09  17 3.10
                            18 3.22   9 3.34   8 3.36  25 3.41  36 3.62
  20  0.990  0.005  0.335-  26 2.82  33 2.83  36 2.87  21 2.89   3 2.90   6 2.98  18 2.99   5 3.02
                             7 3.34   2 3.45
  21  0.248  0.162  0.491-  27 2.84  29 2.85  20 2.89  22 2.91  34 2.91   4 2.99   7 3.00  16 3.02
                             3 3.14  12 3.37   5 3.39
  22  0.005  0.010  0.665-  12 2.81  21 2.91  26 2.92   5 2.94  25 2.95   8 2.96  18 2.97  19 3.00
                             4 3.34   2 3.45
  23  0.992  0.660  0.338-  33 2.78  36 2.79  35 2.84  30 2.86  14 2.89  11 2.93  18 2.96   5 2.98
                            10 3.38
  24  0.007  0.659  0.669-  31 2.67  25 2.83  30 2.86   9 2.89  35 2.92   5 2.95  18 2.97  19 2.97
                             4 3.35
  25  0.245  0.828  0.817-  24 2.83  28 2.90  32 2.94  22 2.95   2 2.98  17 3.04  15 3.13  31 3.14
                             5 3.22  12 3.24  19 3.41
  26  0.753  0.162  0.494-  29 2.78  27 2.80  20 2.82  34 2.88  22 2.92   7 2.96   4 3.00  16 3.03
                             6 3.38  18 3.40
  27  0.503  0.007  0.642-  12 2.76  26 2.80  21 2.84  18 2.88   5 2.92   8 3.01  19 3.08   7 3.22
                            16 3.42
  28  0.489  0.658  0.662-  31 2.75  30 2.84  25 2.90  35 2.91   5 2.98   9 2.99  18 3.04  19 3.04
                            16 3.29  10 3.42
  29  0.989  0.334  0.361-  26 2.78  35 2.80  21 2.85  30 2.87   3 2.98   6 3.01  11 3.03  14 3.03
                             4 3.07  34 3.33  34 3.57
  30  0.244  0.508  0.497-  28 2.84  23 2.86  24 2.86  29 2.87  34 2.93   4 2.96  16 2.97  10 3.00
                            14 3.27   5 3.34  31 3.35  35 3.40  35 3.50
  31  0.243  0.523  0.823-  24 2.67  28 2.75  32 2.88  13 2.93   1 2.99  17 3.01   4 3.05  16 3.10
                            25 3.14  30 3.35   9 3.38   9 3.54  14 3.68
  32  0.010  0.676  0.999-  36 2.81  33 2.83  31 2.88  25 2.94   9 2.96  19 3.03  14 3.06  11 3.09
                             2 3.22  17 3.31  13 3.55  17 3.60
  33  0.210  0.827  0.186-  23 2.78  32 2.83  20 2.83   2 2.88  36 2.94  10 2.98   7 3.04  15 3.05
                            17 3.06   5 3.28  14 3.43   3 3.59
  34  0.506  0.337  0.353-  35 2.86  26 2.88  21 2.91  30 2.93   3 3.01   6 3.04  14 3.05  11 3.06
                            16 3.13  29 3.33  10 3.45   7 3.54  29 3.57
  35  0.752  0.507  0.500-  29 2.80  23 2.84  34 2.86  28 2.91  24 2.92  16 2.96  10 2.98   4 2.99
                            18 3.34  30 3.40  11 3.42   9 3.46  30 3.50
  36  0.785  0.824  0.173-  23 2.79  32 2.81  20 2.87   2 2.93  33 2.94  10 2.98  15 3.02  17 3.04
                             7 3.05  11 3.40  18 3.46  19 3.62   6 3.68
 
  LATTYP: Found a triclinic cell.
 ALAT       =    20.0933440410
 B/A-ratio  =     0.3435765379
 C/A-ratio  =     0.5121083536
 COS(alpha) =     0.0000144120
 COS(beta)  =     0.5140547193
 COS(gamma) =     0.6883886883
  
  Lattice vectors:
  
 A1 = ( -13.8196040474, -10.3093003705,  10.3188829140)
 A2 = (  -6.9035965661,   0.0000000000,   0.0083205011)
 A3 = (  -0.0001247078, -10.2899507160,   0.0195741284)


Analysis of symmetry for initial positions (statically):
=====================================================================
 Subroutine PRICEL returns:
 Original cell was already a primitive cell.
 

 Routine SETGRP: Setting up the symmetry group for a 
 triclinic supercell.


 Subroutine GETGRP returns: Found  1 space group operations
 (whereof  1 operations were pure point group operations)
 out of a pool of  2 trial point group operations.


The static configuration has the point symmetry C_1 .


Analysis of symmetry for dynamics (positions and initial velocities):
=====================================================================
 Subroutine PRICEL returns:
 Original cell was already a primitive cell.
 

 Routine SETGRP: Setting up the symmetry group for a 
 triclinic supercell.


 Subroutine GETGRP returns: Found  1 space group operations
 (whereof  1 operations were pure point group operations)
 out of a pool of  2 trial point group operations.


The dynamic configuration has the point symmetry C_1 .


 Subroutine INISYM returns: Found  1 space group operations
 (whereof  1 operations are pure point group operations),
 and found     1 'primitive' translations

 
 
 KPOINTS: k-points                                

Automatic generation of k-mesh.
Space group operators:
 irot       det(A)        alpha          n_x          n_y          n_z        tau_x        tau_y        tau_z
    1     1.000000     0.000000     1.000000     0.000000     0.000000     0.000000     0.000000     0.000000
 
 Subroutine IBZKPT returns following result:
 ===========================================
 
 Found     14 irreducible k-points:
 
 Following reciprocal coordinates:
            Coordinates               Weight
  0.000000  0.000000  0.000000      1.000000
  0.333333  0.000000 -0.000000      2.000000
  0.000000  0.333333 -0.000000      2.000000
  0.333333  0.333333  0.000000      2.000000
 -0.333333  0.333333 -0.000000      2.000000
  0.000000 -0.000000  0.333333      2.000000
  0.333333  0.000000  0.333333      2.000000
 -0.333333  0.000000  0.333333      2.000000
  0.000000  0.333333  0.333333      2.000000
  0.333333  0.333333  0.333333      2.000000
 -0.333333  0.333333  0.333333      2.000000
 -0.000000 -0.333333  0.333333      2.000000
  0.333333 -0.333333  0.333333      2.000000
 -0.333333 -0.333333  0.333333      2.000000
 
 Following cartesian coordinates:
            Coordinates               Weight
  0.000000  0.000000  0.000000      1.000000
  0.240856 -0.000002  0.000288      2.000000
  0.000000  0.161592  0.000304      2.000000
  0.240856  0.161590  0.000592      2.000000
 -0.240856  0.161595  0.000016      2.000000
  0.000195  0.000308  0.161707      2.000000
  0.241051  0.000305  0.161995      2.000000
 -0.240661  0.000310  0.161419      2.000000
  0.000195  0.161900  0.162011      2.000000
  0.241051  0.161897  0.162299      2.000000
 -0.240661  0.161902  0.161723      2.000000
  0.000195 -0.161285  0.161403      2.000000
  0.241050 -0.161287  0.161691      2.000000
 -0.240661 -0.161282  0.161115      2.000000
 


--------------------------------------------------------------------------------------------------------




 Dimension of arrays:
   k-points           NKPTS =     14   k-points in BZ     NKDIM =     14   number of bands    NBANDS=    180
   number of dos      NEDOS =    301   number of ions     NIONS =     36
   non local maximal  LDIM  =      6   non local SUM 2l+1 LMDIM =     18
   total plane-waves  NPLWV = 144000
   max r-space proj   IRMAX =   6272   max aug-charges    IRDMAX=  13617
   dimension x,y,z NGX =    40 NGY =   60 NGZ =   60
   dimension x,y,z NGXF=    80 NGYF=  120 NGZF=  120
   support grid    NGXF=    80 NGYF=  120 NGZF=  120
   ions per type =              11   8   9   8
 NGX,Y,Z   is equivalent  to a cutoff of   9.63,  9.69,  9.70 a.u.
 NGXF,Y,Z  is equivalent  to a cutoff of  19.26, 19.39, 19.40 a.u.


 I would recommend the setting:
   dimension x,y,z NGX =    39 NGY =   58 NGZ =   58
 SYSTEM =  automatically generated by mexm         
 POSCAR =  generated by pypospack                  

 Startparameter for this run:
   NWRITE =      2    write-flag & timer
   PREC   = accura    normal or accurate (medium, high low for compatibility)
   ISTART =      0    job   : 0-new  1-cont  2-samecut
   ICHARG =      2    charge: 1-file 2-atom 10-const
   ISPIN  =      1    spin polarized calculation?
   LNONCOLLINEAR =      F non collinear calculations
   LSORBIT =      F    spin-orbit coupling
   INIWAV =      1    electr: 0-lowe 1-rand  2-diag
   LASPH  =      F    aspherical Exc in radial PAW
   METAGGA=      F    non-selfconsistent MetaGGA calc.

 Electronic Relaxation 1
   ENCUT  =  300.0 eV  22.05 Ry    4.70 a.u.   9.75 14.53 14.52*2*pi/ulx,y,z
   ENINI  =  300.0     initial cutoff
   ENAUG  =  461.3 eV  augmentation charge cutoff
   NELM   =     70;   NELMIN=  2; NELMDL= -5     # of ELM steps 
   EDIFF  = 0.1E-04   stopping-criterion for ELM
   LREAL  =      T    real-space projection
   NLSPLINE    = F    spline interpolate recip. space projectors
   LCOMPAT=      F    compatible to vasp.4.4
   GGA_COMPAT  = T    GGA compatible to vasp.4.4-vasp.4.6
   LMAXPAW     = -100 max onsite density
   LMAXMIX     =    2 max onsite mixed and CHGCAR
   VOSKOWN=      0    Vosko Wilk Nusair interpolation
   ROPT   =   -0.00025  -0.00025  -0.00025  -0.00025
 Ionic relaxation
   EDIFFG = -.1E-01   stopping-criterion for IOM
   NSW    =    300    number of steps for IOM
   NBLOCK =      1;   KBLOCK =    300    inner block; outer block 
   IBRION =      2    ionic relax: 0-MD 1-quasi-New 2-CG
   NFREE  =      1    steps in history (QN), initial steepest desc. (CG)
   ISIF   =      3    stress and relaxation
   IWAVPR =     11    prediction:  0-non 1-charg 2-wave 3-comb
   ISYM   =      1    0-nonsym 1-usesym 2-fastsym
   LCORR  =      T    Harris-Foulkes like correction to forces

   POTIM  = 0.1500    time-step for ionic-motion
   TEIN   =    0.0    initial temperature
   TEBEG  =    0.0;   TEEND  =   0.0 temperature during run
   SMASS  =  -3.00    Nose mass-parameter (am)
   estimated Nose-frequenzy (Omega)   =  0.10E-29 period in steps =****** mass=  -0.109E-26a.u.
   SCALEE = 1.0000    scale energy and forces
   NPACO  =    256;   APACO  = 16.0  distance and # of slots for P.C.
   PSTRESS=    0.0 pullay stress

  Mass of Ions in am
   POMASS = 178.49 91.22 92.91180.95
  Ionic Valenz
   ZVAL   =   4.00 12.00 13.00  5.00
  Atomic Wigner-Seitz radii
   RWIGS  =  -1.00 -1.00 -1.00 -1.00
  virtual crystal weights 
   VCA    =   1.00  1.00  1.00  1.00
   NELECT =     297.0000    total number of electrons
   NUPDOWN=      -1.0000    fix difference up-down

 DOS related values:
   EMIN   =  10.00;   EMAX   =-10.00  energy-range for DOS
   EFERMI =   0.00
   ISMEAR =     1;   SIGMA  =   0.15  broadening in eV -4-tet -1-fermi 0-gaus

 Electronic relaxation 2 (details)
   IALGO  =     68    algorithm
   LDIAG  =      T    sub-space diagonalisation (order eigenvalues)
   LSUBROT=      F    optimize rotation matrix (better conditioning)
   TURBO    =      0    0=normal 1=particle mesh
   IRESTART =      0    0=no restart 2=restart with 2 vectors
   NREBOOT  =      0    no. of reboots
   NMIN     =      0    reboot dimension
   EREF     =   0.00    reference energy to select bands
   IMIX   =      4    mixing-type and parameters
     AMIX     =   0.40;   BMIX     =  1.00
     AMIX_MAG =   1.60;   BMIX_MAG =  1.00
     AMIN     =   0.10
     WC   =   100.;   INIMIX=   1;  MIXPRE=   1;  MAXMIX= -45

 Intra band minimization:
   WEIMIN = 0.0010     energy-eigenvalue tresh-hold
   EBREAK =  0.14E-07  absolut break condition
   DEPER  =   0.30     relativ break condition  

   TIME   =   0.40     timestep for ELM

  volume/ion in A,a.u.               =      20.29       136.93
  Fermi-wavevector in a.u.,A,eV,Ry     =   1.212820  2.291897 20.013236  1.470931
  Thomas-Fermi vector in A             =   2.348291
 
 Write flags
   LWAVE  =      F    write WAVECAR
   LCHARG =      F    write CHGCAR
   LVTOT  =      F    write LOCPOT, total local potential
   LVHAR  =      F    write LOCPOT, Hartree potential only
   LELF   =      F    write electronic localiz. function (ELF)
   LORBIT =      0    0 simple, 1 ext, 2 COOP (PROOUT)


 Dipole corrections
   LMONO  =      F    monopole corrections only (constant potential shift)
   LDIPOL =      F    correct potential (dipole corrections)
   IDIPOL =      0    1-x, 2-y, 3-z, 4-all directions 
   EPSILON=  1.0000000 bulk dielectric constant

 Exchange correlation treatment:
   GGA     =    --    GGA type
   LEXCH   =     8    internal setting for exchange type
   VOSKOWN=      0    Vosko Wilk Nusair interpolation
   LHFCALC =     F    Hartree Fock is set to
   LHFONE  =     F    Hartree Fock one center treatment
   AEXX    =    0.0000 exact exchange contribution

 Linear response parameters
   LEPSILON=     F    determine dielectric tensor
   LRPA    =     F    only Hartree local field effects (RPA)
   LNABLA  =     F    use nabla operator in PAW spheres
   LVEL    =     F    velocity operator in full k-point grid
   LINTERFAST=   F  fast interpolation
   KINTER  =     0    interpolate to denser k-point grid
   CSHIFT  =0.1000    complex shift for real part using Kramers Kronig
   OMEGAMAX=  -1.0    maximum frequency
   DEG_THRESHOLD= 0.2000000E-02 threshold for treating states as degnerate
   RTIME   =    0.100 relaxation time in fs

 Orbital magnetization related:
   ORBITALMAG=     F  switch on orbital magnetization
   LCHIMAG   =     F  perturbation theory with respect to B field
   DQ        =  0.001000  dq finite difference perturbation B field



--------------------------------------------------------------------------------------------------------


 conjugate gradient relaxation of ions
 charge density and potential will be updated during run
 non-spin polarized calculation
 RMM-DIIS sequential band-by-band and
  variant of blocked Davidson during initial phase
 perform sub-space diagonalisation
    before iterative eigenvector-optimisation
 modified Broyden-mixing scheme, WC =      100.0
 initial mixing is a Kerker type mixing with AMIX =  0.4000 and BMIX =      1.0000
 Hartree-type preconditioning will be used
 using additional bands           31
 real space projection scheme for non local part
 use partial core corrections
 calculate Harris-corrections to forces 
   (improved forces if not selfconsistent)
 use gradient corrections 
 use of overlap-Matrix (Vanderbilt PP)
 Methfessel and Paxton  Order N= 1 SIGMA  =   0.15


--------------------------------------------------------------------------------------------------------


  energy-cutoff  :      300.00
  volume of cell :      730.45
      direct lattice vectors                 reciprocal lattice vectors
     6.903596566  0.000000000 -0.008320501     0.144852242 -0.000001426  0.000173073
     0.000124708 10.289950716 -0.019574128     0.000000220  0.097182543  0.000182876
    -0.012286208 -0.019349654 10.282667783     0.000117212  0.000184996  0.097251515

  length of vectors
     6.903601580 10.289969334 10.282693329     0.144852345  0.097182715  0.097251762


 
 k-points in units of 2pi/SCALE and weight: k-points                                
   0.00000000  0.00000000  0.00000000       0.037
   0.24085596 -0.00000237  0.00028778       0.074
   0.00000037  0.16159222  0.00030408       0.074
   0.24085633  0.16158985  0.00059186       0.074
  -0.24085560  0.16159459  0.00001630       0.074
   0.00019490  0.00030761  0.16170690       0.074
   0.24105086  0.00030523  0.16199468       0.074
  -0.24066107  0.00030998  0.16141912       0.074
   0.00019526  0.16189982  0.16201098       0.074
   0.24105122  0.16189745  0.16229876       0.074
  -0.24066070  0.16190219  0.16172320       0.074
   0.00019453 -0.16128461  0.16140282       0.074
   0.24105049 -0.16128698  0.16169060       0.074
  -0.24066143 -0.16128224  0.16111504       0.074
 
 k-points in reciprocal lattice and weights: k-points                                
   0.00000000  0.00000000  0.00000000       0.037
   0.33333333  0.00000000 -0.00000000       0.074
   0.00000000  0.33333333 -0.00000000       0.074
   0.33333333  0.33333333  0.00000000       0.074
  -0.33333333  0.33333333 -0.00000000       0.074
   0.00000000 -0.00000000  0.33333333       0.074
   0.33333333  0.00000000  0.33333333       0.074
  -0.33333333  0.00000000  0.33333333       0.074
   0.00000000  0.33333333  0.33333333       0.074
   0.33333333  0.33333333  0.33333333       0.074
  -0.33333333  0.33333333  0.33333333       0.074
  -0.00000000 -0.33333333  0.33333333       0.074
   0.33333333 -0.33333333  0.33333333       0.074
  -0.33333333 -0.33333333  0.33333333       0.074
 
 position of ions in fractional coordinates (direct lattice) 
   0.47192900  0.34130100  0.98952300
   0.01213000  0.98941600  0.99984700
   0.23940800  0.17558500  0.18647700
   0.00527200  0.33400800  0.65972000
   0.23830200  0.83258800  0.50364300
   0.75646300  0.18056400  0.16673600
   0.50651600  0.99323100  0.32915700
   0.74084100  0.16007800  0.83411700
   0.75512200  0.50987300  0.83632300
   0.50320100  0.67084000  0.32960300
   0.75937900  0.49320900  0.16723000
   0.27903700  0.14270600  0.81790000
   0.03263800  0.33192300  0.97824300
   0.23568800  0.49487900  0.17958700
   0.49517000  0.98091200  0.01945200
   0.49762700  0.33837900  0.65704300
   0.48943600  0.67727600  0.00970000
   0.75967500  0.83157100  0.50833400
   0.75085600  0.83424200  0.82181600
   0.98982700  0.00491600  0.33457800
   0.24785000  0.16200100  0.49144600
   0.00531800  0.00992700  0.66468200
   0.99235700  0.66014700  0.33802200
   0.00652100  0.65900500  0.66923500
   0.24451200  0.82820800  0.81673400
   0.75324800  0.16178300  0.49448300
   0.50326400  0.00666600  0.64225200
   0.48881800  0.65786900  0.66207900
   0.98857500  0.33440400  0.36122800
   0.24424500  0.50843200  0.49745100
   0.24325700  0.52341000  0.82315900
   0.00998000  0.67603700  0.99888700
   0.21046300  0.82731000  0.18555300
   0.50613500  0.33679900  0.35318900
   0.75160100  0.50698800  0.49975300
   0.78533900  0.82351800  0.17281600
 
 position of ions in cartesian coordinates  (Angst):
   3.24589250  3.49282354 10.16432892
   0.07157969 10.16169518 10.26162665
   1.65050705  1.80315273  1.91205212
   0.02833196  3.42416050  6.77709981
   1.63905684  8.55754417  5.16051367
   5.22028933  1.85476838  1.70466236
   3.49286189 10.21392897  3.36095598
   5.10423921  1.63105485  8.56765045
   5.20284599  5.23038548  8.58336826
   3.46993078  6.89653283  3.37188016
   5.24045314  5.07186046  1.70359798
   1.91632778  1.45261162  8.40507891
   0.21334208  3.39654265 10.05217911
   1.62495014  5.08880557  1.83498559
   3.41833725 10.09315975  0.17669789
   3.42738568  3.46918968  6.74539091
   3.37883397  6.96894897  0.08241244
   5.23834793  8.54698852  5.20443149
   5.17361394  8.56840721  8.42788385
   6.82925620  0.04411143  3.43202234
   1.70503860  1.65747300  5.04814269
   0.02854814  0.08928697  6.83446563
   6.84676169  6.78633949  3.45458922
   0.03687818  6.76817951  6.86856747
   1.67808092  8.50641598  8.37995848
   5.19406516  1.65517102  5.07517025
   3.46644161  0.05616546  6.59974606
   3.36654987  6.75662859  6.79099398
   6.82032656  3.43401104  3.69961641
   1.68012056  5.22211472  5.10313902
   1.66929996  5.36993526  8.45200122
   0.05670967  6.93705929 10.25790730
   1.45077507  8.50938874  1.89003483
   3.48985450  3.45881103  3.62092131
   5.18267324  5.20721149  5.12261653
   5.41964307  8.47061570  1.75435545
 


--------------------------------------------------------------------------------------------------------


 k-point  1 :   0.0000 0.0000 0.0000  plane waves:    8665
 k-point  2 :   0.3333 0.0000-0.0000  plane waves:    8627
 k-point  3 :   0.0000 0.3333-0.0000  plane waves:    8624
 k-point  4 :   0.3333 0.3333 0.0000  plane waves:    8612
 k-point  5 :  -0.3333 0.3333-0.0000  plane waves:    8611
 k-point  6 :   0.0000-0.0000 0.3333  plane waves:    8625
 k-point  7 :   0.3333 0.0000 0.3333  plane waves:    8612
 k-point  8 :  -0.3333 0.0000 0.3333  plane waves:    8610
 k-point  9 :   0.0000 0.3333 0.3333  plane waves:    8615
 k-point 10 :   0.3333 0.3333 0.3333  plane waves:    8618
 k-point 11 :  -0.3333 0.3333 0.3333  plane waves:    8615
 k-point 12 :  -0.0000-0.3333 0.3333  plane waves:    8612
 k-point 13 :   0.3333-0.3333 0.3333  plane waves:    8619
 k-point 14 :  -0.3333-0.3333 0.3333  plane waves:    8615

 maximum and minimum number of plane-waves per node :      1754     1690

 maximum number of plane-waves:      8665
 maximum index in each direction: 
   IXMAX=   10   IYMAX=   14   IZMAX=   14
   IXMIN=  -10   IYMIN=  -14   IZMIN=  -14

 WARNING: aliasing errors must be expected set NGX to  42 to avoid them
 NGY is ok and might be reduce to  58
 NGZ is ok and might be reduce to  58
 aliasing errors are usually negligible using standard VASP settings
 and one can safely disregard these warnings

 real space projection operators:
  total allocation   :      27160.73 KBytes
  max/ min on nodes  :       5481.14       5394.09


 parallel 3D FFT for wavefunctions:
    minimum data exchange during FFTs selected (reduces bandwidth)
 parallel 3D FFT for charge:
    minimum data exchange during FFTs selected (reduces bandwidth)


 total amount of memory used by VASP on root node    67598. kBytes
========================================================================

   base      :      30000. kBytes
   nonlr-proj:      10471. kBytes
   fftplans  :       2814. kBytes
   grid      :       5360. kBytes
   one-center:        124. kBytes
   wavefun   :      18829. kBytes
 
     INWAV:  cpu time    0.0000: real time    0.0000
 Broyden mixing: mesh for mixing (old mesh)
   NGX = 19   NGY = 29   NGZ = 29
  (NGX  = 80   NGY  =120   NGZ  =120)
  gives a total of  15979 points

 initial charge density was supplied:
 charge density of overlapping atoms calculated
 number of electron     297.0000000 magnetization 
 keeping initial charge density in first step


--------------------------------------------------------------------------------------------------------


 Maximum index for non-local projection operator         1221
 Maximum index for augmentation-charges          673 (set IRDMAX)


--------------------------------------------------------------------------------------------------------


 First call to EWALD:  gamma=   0.197
 Maximum number of real-space cells 3x 2x 2
 Maximum number of reciprocal cells 2x 3x 3

 FEWALD executed in parallel
    FEWALD:  cpu time    0.1002: real time    0.1019


----------------------------------------- Iteration    1(   1)  ---------------------------------------


    POTLOK:  cpu time    0.0469: real time    0.0472
    SETDIJ:  cpu time    0.0114: real time    0.0115
     EDDAV:  cpu time    1.0257: real time    1.0312
       DOS:  cpu time    0.0017: real time    0.0017
    --------------------------------------------
      LOOP:  cpu time    1.0934: real time    1.5925

 eigenvalue-minimisations  :  5544
 total energy-change (2. order) : 0.1908036E+04  (-0.1119081E+05)
 number of electron     297.0000000 magnetization 
 augmentation part      297.0000000 magnetization 

 Free energy of the ion-electron system (eV)
  ---------------------------------------------------
  alpha Z        PSCENC =      1509.64692509
  Ewald energy   TEWEN  =    -19117.61674474
  -Hartree energ DENC   =     -7811.36611526
  -exchange      EXHF   =         0.00000000
  -V(xc)+E(xc)   XCENC  =      -206.37506886
  PAW double counting   =     22009.98238969   -20449.69638840
  entropy T*S    EENTRO =        -0.00873468
  eigenvalues    EBANDS =      -175.99326531
  atomic energy  EATOM  =     26149.46313945
  Solvation  Ediel_sol  =         0.00000000
  ---------------------------------------------------
  free energy    TOTEN  =      1908.03613697 eV

  energy without entropy =     1908.04487165  energy(sigma->0) =     1908.03904853


--------------------------------------------------------------------------------------------------------




----------------------------------------- Iteration    1(   2)  ---------------------------------------


     EDDAV:  cpu time    1.1535: real time    1.1594
       DOS:  cpu time    0.0012: real time    0.0012
    --------------------------------------------
      LOOP:  cpu time    1.1555: real time    1.4101

 eigenvalue-minimisations  :  5788
 total energy-change (2. order) :-0.1998577E+04  (-0.1931657E+04)
 number of electron     297.0000000 magnetization 
 augmentation part      297.0000000 magnetization 

 Free energy of the ion-electron system (eV)
  ---------------------------------------------------
  alpha Z        PSCENC =      1509.64692509
  Ewald energy   TEWEN  =    -19117.61674474
  -Hartree energ DENC   =     -7811.36611526
  -exchange      EXHF   =         0.00000000
  -V(xc)+E(xc)   XCENC  =      -206.37506886
  PAW double counting   =     22009.98238969   -20449.69638840
  entropy T*S    EENTRO =         0.00015712
  eigenvalues    EBANDS =     -2174.57887835
  atomic energy  EATOM  =     26149.46313945
  Solvation  Ediel_sol  =         0.00000000
  ---------------------------------------------------
  free energy    TOTEN  =       -90.54058427 eV

  energy without entropy =      -90.54074139  energy(sigma->0) =      -90.54063664


--------------------------------------------------------------------------------------------------------




----------------------------------------- Iteration    1(   3)  ---------------------------------------


     EDDAV:  cpu time    1.4588: real time    1.4642
       DOS:  cpu time    0.0013: real time    0.0014
    --------------------------------------------
      LOOP:  cpu time    1.4611: real time    1.5098

 eigenvalue-minimisations  :  8696
 total energy-change (2. order) :-0.2521128E+03  (-0.2396718E+03)
 number of electron     297.0000000 magnetization 
 augmentation part      297.0000000 magnetization 

 Free energy of the ion-electron system (eV)
  ---------------------------------------------------
  alpha Z        PSCENC =      1509.64692509
  Ewald energy   TEWEN  =    -19117.61674474
  -Hartree energ DENC   =     -7811.36611526
  -exchange      EXHF   =         0.00000000
  -V(xc)+E(xc)   XCENC  =      -206.37506886
  PAW double counting   =     22009.98238969   -20449.69638840
  entropy T*S    EENTRO =        -0.00605249
  eigenvalues    EBANDS =     -2426.68541965
  atomic energy  EATOM  =     26149.46313945
  Solvation  Ediel_sol  =         0.00000000
  ---------------------------------------------------
  free energy    TOTEN  =      -342.65333517 eV

  energy without entropy =     -342.64728268  energy(sigma->0) =     -342.65131767


--------------------------------------------------------------------------------------------------------




----------------------------------------- Iteration    1(   4)  ---------------------------------------


     EDDAV:  cpu time    1.3847: real time    1.3894
       DOS:  cpu time    0.0014: real time    0.0014
    --------------------------------------------
      LOOP:  cpu time    1.3864: real time    1.4414

 eigenvalue-minimisations  :  8392
 total energy-change (2. order) :-0.3035987E+02  (-0.2886820E+02)
 number of electron     297.0000000 magnetization 
 augmentation part      297.0000000 magnetization 

 Free energy of the ion-electron system (eV)
  ---------------------------------------------------
  alpha Z        PSCENC =      1509.64692509
  Ewald energy   TEWEN  =    -19117.61674474
  -Hartree energ DENC   =     -7811.36611526
  -exchange      EXHF   =         0.00000000
  -V(xc)+E(xc)   XCENC  =      -206.37506886
  PAW double counting   =     22009.98238969   -20449.69638840
  entropy T*S    EENTRO =         0.00190260
  eigenvalues    EBANDS =     -2457.05324102
  atomic energy  EATOM  =     26149.46313945
  Solvation  Ediel_sol  =         0.00000000
  ---------------------------------------------------
  free energy    TOTEN  =      -373.01320145 eV

  energy without entropy =     -373.01510405  energy(sigma->0) =     -373.01383565


--------------------------------------------------------------------------------------------------------




----------------------------------------- Iteration    1(   5)  ---------------------------------------


     EDDAV:  cpu time    1.4017: real time    1.4063
       DOS:  cpu time    0.0009: real time    0.0009
    CHARGE:  cpu time    0.0349: real time    0.0350
    MIXING:  cpu time    0.0017: real time    0.0017
    --------------------------------------------
      LOOP:  cpu time    1.4396: real time    1.5031

 eigenvalue-minimisations  :  8080
 total energy-change (2. order) :-0.3032885E+01  (-0.2973425E+01)
 number of electron     296.9999999 magnetization 
 augmentation part       17.2076589 magnetization 

 Broyden mixing:
  rms(total) = 0.62995E+01    rms(broyden)= 0.62990E+01
  rms(prec ) = 0.65933E+01
  weight for this iteration     100.00

 Free energy of the ion-electron system (eV)
  ---------------------------------------------------
  alpha Z        PSCENC =      1509.64692509
  Ewald energy   TEWEN  =    -19117.61674474
  -Hartree energ DENC   =     -7811.36611526
  -exchange      EXHF   =         0.00000000
  -V(xc)+E(xc)   XCENC  =      -206.37506886
  PAW double counting   =     22009.98238969   -20449.69638840
  entropy T*S    EENTRO =         0.00155141
  eigenvalues    EBANDS =     -2460.08577507
  atomic energy  EATOM  =     26149.46313945
  Solvation  Ediel_sol  =         0.00000000
  ---------------------------------------------------
  free energy    TOTEN  =      -376.04608669 eV

  energy without entropy =     -376.04763810  energy(sigma->0) =     -376.04660383


--------------------------------------------------------------------------------------------------------




----------------------------------------- Iteration    1(   6)  ---------------------------------------


    POTLOK:  cpu time    0.0673: real time    0.0708
    SETDIJ:  cpu time    0.0046: real time    0.0047
    EDDIAG:  cpu time    0.0836: real time    0.0841
  RMM-DIIS:  cpu time    0.7515: real time    0.7542
    ORTHCH:  cpu time    0.0126: real time    0.0126
       DOS:  cpu time    0.0020: real time    0.0020
    CHARGE:  cpu time    0.0306: real time    0.0310
    MIXING:  cpu time    0.0017: real time    0.0023
    --------------------------------------------
      LOOP:  cpu time    0.9547: real time    1.0409

 eigenvalue-minimisations  :  7175
 total energy-change (2. order) : 0.9950836E+01  (-0.2399936E+01)
 number of electron     296.9999999 magnetization 
 augmentation part       17.8664787 magnetization 

 Broyden mixing:
  rms(total) = 0.30387E+01    rms(broyden)= 0.30386E+01
  rms(prec ) = 0.34165E+01
  weight for this iteration     100.00

 eigenvalues of (default mixing * dielectric matrix)
  average eigenvalue GAMMA=   1.8134
  1.8134

 Free energy of the ion-electron system (eV)
  ---------------------------------------------------
  alpha Z        PSCENC =      1509.64692509
  Ewald energy   TEWEN  =    -19117.61674474
  -Hartree energ DENC   =     -7654.89401424
  -exchange      EXHF   =         0.00000000
  -V(xc)+E(xc)   XCENC  =      -209.98872557
  PAW double counting   =     27386.20883944   -25833.17190131
  entropy T*S    EENTRO =         0.01154860
  eigenvalues    EBANDS =     -2595.75431747
  atomic energy  EATOM  =     26149.46313945
  Solvation  Ediel_sol  =         0.00000000
  ---------------------------------------------------
  free energy    TOTEN  =      -366.09525076 eV

  energy without entropy =     -366.10679935  energy(sigma->0) =     -366.09910029


--------------------------------------------------------------------------------------------------------




----------------------------------------- Iteration    1(   7)  ---------------------------------------


    POTLOK:  cpu time    0.0272: real time    0.0325
    SETDIJ:  cpu time    0.0036: real time    0.0042
    EDDIAG:  cpu time    0.0793: real time    0.0876
  RMM-DIIS:  cpu time    0.7128: real time    0.8048
    ORTHCH:  cpu time    0.0173: real time    0.0175
       DOS:  cpu time    0.0009: real time    0.0009
    CHARGE:  cpu time    0.0300: real time    0.0301
    MIXING:  cpu time    0.0012: real time    0.0013
    --------------------------------------------
      LOOP:  cpu time    0.8732: real time    1.0344

 eigenvalue-minimisations  :  7560
 total energy-change (2. order) :-0.3132268E+01  (-0.3015740E+01)
 number of electron     296.9999999 magnetization 
 augmentation part       18.3285034 magnetization 

 Broyden mixing:
  rms(total) = 0.13035E+01    rms(broyden)= 0.13030E+01
  rms(prec ) = 0.37255E+01
  weight for this iteration     100.00

 eigenvalues of (default mixing * dielectric matrix)
  average eigenvalue GAMMA=   1.1513
  1.8094  0.4932

 Free energy of the ion-electron system (eV)
  ---------------------------------------------------
  alpha Z        PSCENC =      1509.64692509
  Ewald energy   TEWEN  =    -19117.61674474
  -Hartree energ DENC   =     -7545.57091985
  -exchange      EXHF   =         0.00000000
  -V(xc)+E(xc)   XCENC  =      -210.03144494
  PAW double counting   =     31908.85179565   -30350.38623154
  entropy T*S    EENTRO =         0.00065786
  eigenvalues    EBANDS =     -2713.58469585
  atomic energy  EATOM  =     26149.46313945
  Solvation  Ediel_sol  =         0.00000000
  ---------------------------------------------------
  free energy    TOTEN  =      -369.22751887 eV

  energy without entropy =     -369.22817673  energy(sigma->0) =     -369.22773816


--------------------------------------------------------------------------------------------------------




----------------------------------------- Iteration    1(   8)  ---------------------------------------


    POTLOK:  cpu time    0.0293: real time    0.0294
    SETDIJ:  cpu time    0.0037: real time    0.0037
    EDDIAG:  cpu time    0.0784: real time    0.0789
  RMM-DIIS:  cpu time    0.7361: real time    0.8869
    ORTHCH:  cpu time    0.0137: real time    0.0137
       DOS:  cpu time    0.0008: real time    0.0008
    CHARGE:  cpu time    0.0319: real time    0.0320
    MIXING:  cpu time    0.0016: real time    0.0016
    --------------------------------------------
      LOOP:  cpu time    0.8961: real time    1.0888

 eigenvalue-minimisations  :  7357
 total energy-change (2. order) : 0.7656175E+01  (-0.7393851E+00)
 number of electron     296.9999999 magnetization 
 augmentation part       18.0792702 magnetization 

 Broyden mixing:
  rms(total) = 0.41341E+00    rms(broyden)= 0.41279E+00
  rms(prec ) = 0.66368E+00
  weight for this iteration     100.00

 eigenvalues of (default mixing * dielectric matrix)
  average eigenvalue GAMMA=   1.1430
  1.8533  1.1720  0.4038

 Free energy of the ion-electron system (eV)
  ---------------------------------------------------
  alpha Z        PSCENC =      1509.64692509
  Ewald energy   TEWEN  =    -19117.61674474
  -Hartree energ DENC   =     -7559.72439664
  -exchange      EXHF   =         0.00000000
  -V(xc)+E(xc)   XCENC  =      -208.92115672
  PAW double counting   =     33331.06790261   -31768.62917584
  entropy T*S    EENTRO =         0.02044665
  eigenvalues    EBANDS =     -2696.87828344
  atomic energy  EATOM  =     26149.46313945
  Solvation  Ediel_sol  =         0.00000000
  ---------------------------------------------------
  free energy    TOTEN  =      -361.57134357 eV

  energy without entropy =     -361.59179023  energy(sigma->0) =     -361.57815913


--------------------------------------------------------------------------------------------------------




----------------------------------------- Iteration    1(   9)  ---------------------------------------


    POTLOK:  cpu time    0.0293: real time    0.0296
    SETDIJ:  cpu time    0.0036: real time    0.0036
    EDDIAG:  cpu time    0.0857: real time    0.0862
  RMM-DIIS:  cpu time    0.7761: real time    0.7808
    ORTHCH:  cpu time    0.0126: real time    0.0126
       DOS:  cpu time    0.0010: real time    0.0010
    CHARGE:  cpu time    0.0305: real time    0.0306
    MIXING:  cpu time    0.0014: real time    0.0014
    --------------------------------------------
      LOOP:  cpu time    0.9408: real time    1.0033

 eigenvalue-minimisations  :  7620
 total energy-change (2. order) : 0.1358254E+00  (-0.2904227E+00)
 number of electron     296.9999999 magnetization 
 augmentation part       17.9528524 magnetization 

 Broyden mixing:
  rms(total) = 0.29394E+00    rms(broyden)= 0.29373E+00
  rms(prec ) = 0.47305E+00
  weight for this iteration     100.00

 eigenvalues of (default mixing * dielectric matrix)
  average eigenvalue GAMMA=   1.0623
  1.7693  1.6353  0.4223  0.4223

 Free energy of the ion-electron system (eV)
  ---------------------------------------------------
  alpha Z        PSCENC =      1509.64692509
  Ewald energy   TEWEN  =    -19117.61674474
  -Hartree energ DENC   =     -7562.49909122
  -exchange      EXHF   =         0.00000000
  -V(xc)+E(xc)   XCENC  =      -208.34475596
  PAW double counting   =     33604.61098697   -32037.75125077
  entropy T*S    EENTRO =         0.01933894
  eigenvalues    EBANDS =     -2698.96406590
  atomic energy  EATOM  =     26149.46313945
  Solvation  Ediel_sol  =         0.00000000
  ---------------------------------------------------
  free energy    TOTEN  =      -361.43551813 eV

  energy without entropy =     -361.45485707  energy(sigma->0) =     -361.44196444


--------------------------------------------------------------------------------------------------------




----------------------------------------- Iteration    1(  10)  ---------------------------------------


    POTLOK:  cpu time    0.0293: real time    0.0296
    SETDIJ:  cpu time    0.0036: real time    0.0036
    EDDIAG:  cpu time    0.0788: real time    0.0791
  RMM-DIIS:  cpu time    0.8473: real time    0.8500
    ORTHCH:  cpu time    0.0124: real time    0.0124
       DOS:  cpu time    0.0009: real time    0.0010
    CHARGE:  cpu time    0.0299: real time    0.0300
    MIXING:  cpu time    0.0014: real time    0.0014
    --------------------------------------------
      LOOP:  cpu time    1.0042: real time    1.0617

 eigenvalue-minimisations  :  7666
 total energy-change (2. order) : 0.6626783E-01  (-0.5651633E-01)
 number of electron     296.9999999 magnetization 
 augmentation part       17.8696840 magnetization 

 Broyden mixing:
  rms(total) = 0.16748E+00    rms(broyden)= 0.16741E+00
  rms(prec ) = 0.29271E+00
  weight for this iteration     100.00

 eigenvalues of (default mixing * dielectric matrix)
  average eigenvalue GAMMA=   1.0618
  1.8705  1.8705  0.7235  0.4223  0.4223

 Free energy of the ion-electron system (eV)
  ---------------------------------------------------
  alpha Z        PSCENC =      1509.64692509
  Ewald energy   TEWEN  =    -19117.61674474
  -Hartree energ DENC   =     -7570.12288968
  -exchange      EXHF   =         0.00000000
  -V(xc)+E(xc)   XCENC  =      -207.62400640
  PAW double counting   =     33829.31497643   -32256.56429979
  entropy T*S    EENTRO =         0.02173653
  eigenvalues    EBANDS =     -2697.88808719
  atomic energy  EATOM  =     26149.46313945
  Solvation  Ediel_sol  =         0.00000000
  ---------------------------------------------------
  free energy    TOTEN  =      -361.36925030 eV

  energy without entropy =     -361.39098683  energy(sigma->0) =     -361.37649581


--------------------------------------------------------------------------------------------------------




----------------------------------------- Iteration    1(  11)  ---------------------------------------


    POTLOK:  cpu time    0.0281: real time    0.0282
    SETDIJ:  cpu time    0.0038: real time    0.0038
    EDDIAG:  cpu time    0.0804: real time    0.0808
  RMM-DIIS:  cpu time    0.8465: real time    0.8506
    ORTHCH:  cpu time    0.0135: real time    0.0138
       DOS:  cpu time    0.0009: real time    0.0009
    CHARGE:  cpu time    0.0298: real time    0.0299
    MIXING:  cpu time    0.0017: real time    0.0017
    --------------------------------------------
      LOOP:  cpu time    1.0052: real time    1.0816

 eigenvalue-minimisations  :  7539
 total energy-change (2. order) : 0.3637171E-01  (-0.1711220E-01)
 number of electron     296.9999999 magnetization 
 augmentation part       17.8275827 magnetization 

 Broyden mixing:
  rms(total) = 0.88159E-01    rms(broyden)= 0.88101E-01
  rms(prec ) = 0.15851E+00
  weight for this iteration     100.00

 eigenvalues of (default mixing * dielectric matrix)
  average eigenvalue GAMMA=   1.0500
  1.9907  1.9907  1.0132  0.4647  0.4647  0.3761

 Free energy of the ion-electron system (eV)
  ---------------------------------------------------
  alpha Z        PSCENC =      1509.64692509
  Ewald energy   TEWEN  =    -19117.61674474
  -Hartree energ DENC   =     -7575.96710991
  -exchange      EXHF   =         0.00000000
  -V(xc)+E(xc)   XCENC  =      -207.14621196
  PAW double counting   =     33980.84445604   -32404.03913546
  entropy T*S    EENTRO =         0.02037906
  eigenvalues    EBANDS =     -2696.53857615
  atomic energy  EATOM  =     26149.46313945
  Solvation  Ediel_sol  =         0.00000000
  ---------------------------------------------------
  free energy    TOTEN  =      -361.33287859 eV

  energy without entropy =     -361.35325765  energy(sigma->0) =     -361.33967161


--------------------------------------------------------------------------------------------------------




----------------------------------------- Iteration    1(  12)  ---------------------------------------


    POTLOK:  cpu time    0.0296: real time    0.0297
    SETDIJ:  cpu time    0.0036: real time    0.0036
    EDDIAG:  cpu time    0.0770: real time    0.0773
  RMM-DIIS:  cpu time    0.7840: real time    0.7865
    ORTHCH:  cpu time    0.0194: real time    0.0196
       DOS:  cpu time    0.0021: real time    0.0021
    CHARGE:  cpu time    0.0382: real time    0.0383
    MIXING:  cpu time    0.0014: real time    0.0015
    --------------------------------------------
      LOOP:  cpu time    0.9559: real time    1.0077

 eigenvalue-minimisations  :  7654
 total energy-change (2. order) : 0.6443678E-02  (-0.6124751E-02)
 number of electron     296.9999999 magnetization 
 augmentation part       17.8268769 magnetization 

 Broyden mixing:
  rms(total) = 0.46421E-01    rms(broyden)= 0.46403E-01
  rms(prec ) = 0.67251E-01
  weight for this iteration     100.00

 eigenvalues of (default mixing * dielectric matrix)
  average eigenvalue GAMMA=   1.0423
  2.2214  1.9130  1.2511  0.6594  0.5047  0.3930  0.3537

 Free energy of the ion-electron system (eV)
  ---------------------------------------------------
  alpha Z        PSCENC =      1509.64692509
  Ewald energy   TEWEN  =    -19117.61674474
  -Hartree energ DENC   =     -7578.84355445
  -exchange      EXHF   =         0.00000000
  -V(xc)+E(xc)   XCENC  =      -206.90638342
  PAW double counting   =     34099.43280696   -32520.05635322
  entropy T*S    EENTRO =         0.01984936
  eigenvalues    EBANDS =     -2696.46611995
  atomic energy  EATOM  =     26149.46313945
  Solvation  Ediel_sol  =         0.00000000
  ---------------------------------------------------
  free energy    TOTEN  =      -361.32643491 eV

  energy without entropy =     -361.34628427  energy(sigma->0) =     -361.33305136


--------------------------------------------------------------------------------------------------------




----------------------------------------- Iteration    1(  13)  ---------------------------------------


    POTLOK:  cpu time    0.0282: real time    0.0285
    SETDIJ:  cpu time    0.0036: real time    0.0036
    EDDIAG:  cpu time    0.0828: real time    0.0832
  RMM-DIIS:  cpu time    0.7755: real time    0.7799
    ORTHCH:  cpu time    0.0125: real time    0.0126
       DOS:  cpu time    0.0036: real time    0.0036
    CHARGE:  cpu time    0.0299: real time    0.0300
    MIXING:  cpu time    0.0015: real time    0.0015
    --------------------------------------------
      LOOP:  cpu time    0.9382: real time    0.9904

 eigenvalue-minimisations  :  7655
 total energy-change (2. order) : 0.7870804E-03  (-0.1864969E-02)
 number of electron     296.9999999 magnetization 
 augmentation part       17.8239728 magnetization 

 Broyden mixing:
  rms(total) = 0.26374E-01    rms(broyden)= 0.26365E-01
  rms(prec ) = 0.45906E-01
  weight for this iteration     100.00

 eigenvalues of (default mixing * dielectric matrix)
  average eigenvalue GAMMA=   1.0663
  2.3511  1.9623  1.4246  0.9955  0.5821  0.4554  0.4083  0.3512

 Free energy of the ion-electron system (eV)
  ---------------------------------------------------
  alpha Z        PSCENC =      1509.64692509
  Ewald energy   TEWEN  =    -19117.61674474
  -Hartree energ DENC   =     -7578.99815932
  -exchange      EXHF   =         0.00000000
  -V(xc)+E(xc)   XCENC  =      -206.87101065
  PAW double counting   =     34174.31063380   -32593.64448505
  entropy T*S    EENTRO =         0.02022909
  eigenvalues    EBANDS =     -2697.63617549
  atomic energy  EATOM  =     26149.46313945
  Solvation  Ediel_sol  =         0.00000000
  ---------------------------------------------------
  free energy    TOTEN  =      -361.32564783 eV

  energy without entropy =     -361.34587692  energy(sigma->0) =     -361.33239086


--------------------------------------------------------------------------------------------------------




----------------------------------------- Iteration    1(  14)  ---------------------------------------


    POTLOK:  cpu time    0.0283: real time    0.0285
    SETDIJ:  cpu time    0.0036: real time    0.0036
    EDDIAG:  cpu time    0.1822: real time    0.1830
  RMM-DIIS:  cpu time    0.8311: real time    0.8371
    ORTHCH:  cpu time    0.0122: real time    0.0123
       DOS:  cpu time    0.0022: real time    0.0022
    CHARGE:  cpu time    0.0298: real time    0.0300
    MIXING:  cpu time    0.0016: real time    0.0016
    --------------------------------------------
      LOOP:  cpu time    1.0916: real time    1.1427

 eigenvalue-minimisations  :  7784
 total energy-change (2. order) : 0.7101422E-04  (-0.8093457E-03)
 number of electron     296.9999999 magnetization 
 augmentation part       17.8241692 magnetization 

 Broyden mixing:
  rms(total) = 0.15614E-01    rms(broyden)= 0.15608E-01
  rms(prec ) = 0.29144E-01
  weight for this iteration     100.00

 eigenvalues of (default mixing * dielectric matrix)
  average eigenvalue GAMMA=   1.0437
  2.4512  1.9984  1.5365  1.1197  0.5915  0.5396  0.4048  0.4048  0.3468

 Free energy of the ion-electron system (eV)
  ---------------------------------------------------
  alpha Z        PSCENC =      1509.64692509
  Ewald energy   TEWEN  =    -19117.61674474
  -Hartree energ DENC   =     -7579.60512656
  -exchange      EXHF   =         0.00000000
  -V(xc)+E(xc)   XCENC  =      -206.85522585
  PAW double counting   =     34204.96408870   -32623.77018537
  entropy T*S    EENTRO =         0.02019179
  eigenvalues    EBANDS =     -2697.57263932
  atomic energy  EATOM  =     26149.46313945
  Solvation  Ediel_sol  =         0.00000000
  ---------------------------------------------------
  free energy    TOTEN  =      -361.32557682 eV

  energy without entropy =     -361.34576861  energy(sigma->0) =     -361.33230741


--------------------------------------------------------------------------------------------------------




----------------------------------------- Iteration    1(  15)  ---------------------------------------


    POTLOK:  cpu time    0.0284: real time    0.0285
    SETDIJ:  cpu time    0.0036: real time    0.0036
    EDDIAG:  cpu time    0.0770: real time    0.0774
  RMM-DIIS:  cpu time    0.7702: real time    0.7784
    ORTHCH:  cpu time    0.0123: real time    0.0124
       DOS:  cpu time    0.0012: real time    0.0012
    CHARGE:  cpu time    0.0304: real time    0.0306
    MIXING:  cpu time    0.0016: real time    0.0016
    --------------------------------------------
      LOOP:  cpu time    0.9254: real time    0.9927

 eigenvalue-minimisations  :  7631
 total energy-change (2. order) :-0.1114174E-04  (-0.4121174E-03)
 number of electron     296.9999999 magnetization 
 augmentation part       17.8233224 magnetization 

 Broyden mixing:
  rms(total) = 0.78955E-02    rms(broyden)= 0.78893E-02
  rms(prec ) = 0.13564E-01
  weight for this iteration     100.00

 eigenvalues of (default mixing * dielectric matrix)
  average eigenvalue GAMMA=   1.0316
  2.5564  2.0640  1.4404  1.3224  0.7205  0.6338  0.4296  0.4296  0.3490  0.3704

 Free energy of the ion-electron system (eV)
  ---------------------------------------------------
  alpha Z        PSCENC =      1509.64692509
  Ewald energy   TEWEN  =    -19117.61674474
  -Hartree energ DENC   =     -7579.68597175
  -exchange      EXHF   =         0.00000000
  -V(xc)+E(xc)   XCENC  =      -206.85122350
  PAW double counting   =     34226.14661186   -32644.58913040
  entropy T*S    EENTRO =         0.02026796
  eigenvalues    EBANDS =     -2697.85946193
  atomic energy  EATOM  =     26149.46313945
  Solvation  Ediel_sol  =         0.00000000
  ---------------------------------------------------
  free energy    TOTEN  =      -361.32558796 eV

  energy without entropy =     -361.34585592  energy(sigma->0) =     -361.33234394


--------------------------------------------------------------------------------------------------------




----------------------------------------- Iteration    1(  16)  ---------------------------------------


    POTLOK:  cpu time    0.0278: real time    0.0280
    SETDIJ:  cpu time    0.0035: real time    0.0035
    EDDIAG:  cpu time    0.0767: real time    0.0771
  RMM-DIIS:  cpu time    0.7274: real time    0.7350
    ORTHCH:  cpu time    0.0124: real time    0.0124
       DOS:  cpu time    0.0223: real time    0.0224
    CHARGE:  cpu time    0.0297: real time    0.0298
    MIXING:  cpu time    0.0017: real time    0.0017
    --------------------------------------------
      LOOP:  cpu time    0.9021: real time    0.9626

 eigenvalue-minimisations  :  7152
 total energy-change (2. order) :-0.4638492E-04  (-0.1603624E-03)
 number of electron     296.9999999 magnetization 
 augmentation part       17.8223028 magnetization 

 Broyden mixing:
  rms(total) = 0.41911E-02    rms(broyden)= 0.41893E-02
  rms(prec ) = 0.77275E-02
  weight for this iteration     100.00

 eigenvalues of (default mixing * dielectric matrix)
  average eigenvalue GAMMA=   1.0275
  2.6191  2.0623  1.4903  1.4903  0.8977  0.6369  0.5242  0.4689  0.4056  0.3458
  0.3610

 Free energy of the ion-electron system (eV)
  ---------------------------------------------------
  alpha Z        PSCENC =      1509.64692509
  Ewald energy   TEWEN  =    -19117.61674474
  -Hartree energ DENC   =     -7580.01492480
  -exchange      EXHF   =         0.00000000
[...]
     90       4.9676      2.00000
     91       4.9984      2.00000
     92       5.0599      2.00000
     93       5.0828      2.00000
     94       5.1796      2.00000
     95       5.1883      2.00000
     96       5.2458      2.00000
     97       5.2674      2.00000
     98       5.3361      2.00000
     99       5.3772      2.00000
    100       5.4050      2.00000
    101       5.4424      2.00000
    102       5.4713      2.00000
    103       5.5551      2.00000
    104       5.6523      2.00000
    105       5.7142      2.00000
    106       5.7559      2.00000
    107       5.7968      2.00000
    108       5.8693      2.00000
    109       5.9174      2.00000
    110       6.0626      2.00000
    111       6.0877      2.00000
    112       6.1432      2.00000
    113       6.1872      2.00000
    114       6.2263      2.00000
    115       6.2821      2.00000
    116       6.3027      2.00000
    117       6.3342      2.00000
    118       6.3615      2.00000
    119       6.4173      2.00000
    120       6.4401      2.00000
    121       6.4766      2.00000
    122       6.5028      2.00000
    123       6.5398      2.00000
    124       6.5695      2.00000
    125       6.6289      2.00000
    126       6.6368      2.00000
    127       6.6708      2.00000
    128       6.7141      2.00000
    129       6.7557      2.00000
    130       6.8268      2.00000
    131       6.8569      2.00000
    132       6.9188      2.00000
    133       6.9663      2.00000
    134       7.0021      2.00000
    135       7.0217      2.00001
    136       7.0717      2.00009
    137       7.1049      2.00030
    138       7.1270      2.00066
    139       7.1537      2.00156
    140       7.1784      2.00327
    141       7.2162      2.00892
    142       7.2685      2.02732
    143       7.3089      2.05066
    144       7.3465      2.06931
    145       7.3653      2.07011
    146       7.3934      2.04771
    147       7.4113      2.01120
    148       7.4489      1.85591
    149       7.5052      1.39755
    150       7.5400      1.01808
    151       7.5730      0.65428
    152       7.5929      0.45723
    153       7.6597      0.02652
    154       7.6984     -0.05843
    155       7.7520     -0.06332
    156       7.7697     -0.05341
    157       7.8057     -0.03195
    158       7.8563     -0.01149
    159       7.8955     -0.00424
    160       7.9232     -0.00190
    161       7.9764     -0.00033
    162       8.0293     -0.00004
    163       8.0523     -0.00002
    164       8.0691     -0.00001
    165       8.1321     -0.00000
    166       8.1897     -0.00000
    167       8.2430     -0.00000
    168       8.3073     -0.00000
    169       8.3573     -0.00000
    170       8.3934     -0.00000
    171       8.4593     -0.00000
    172       8.4878     -0.00000
    173       8.7334     -0.00000
    174       8.8331     -0.00000
    175       8.9151     -0.00000
    176       9.2988     -0.00000
    177       9.3729     -0.00000
    178       9.5205     -0.00000
    179       9.5665     -0.00000
    180       9.6161     -0.00000


--------------------------------------------------------------------------------------------------------


 soft charge-density along one line, spin component           1
         0         1         2         3         4         5         6         7         8         9
 total charge-density along one line
 
 pseudopotential strength for first ion, spin component:           1
 -5.060   0.000   0.001  -0.001  -0.001  -6.310   0.000   0.001
  0.000  -5.060   0.001  -0.002  -0.001   0.000  -6.310   0.001
  0.001   0.001  -5.061  -0.002   0.002   0.001   0.001  -6.311
 -0.001  -0.002  -0.002  -5.061  -0.002  -0.001  -0.002  -0.002
 -0.001  -0.001   0.002  -0.002  -5.060  -0.001  -0.002   0.002
 -6.310   0.000   0.001  -0.001  -0.001  -7.849  -0.000   0.002
  0.000  -6.310   0.001  -0.002  -0.002  -0.000  -7.850   0.001
  0.001   0.001  -6.311  -0.002   0.002   0.002   0.001  -7.850
 -0.001  -0.002  -0.002  -6.311  -0.003  -0.002  -0.003  -0.003
 -0.001  -0.002   0.002  -0.003  -6.310  -0.001  -0.002   0.003
  0.001  -0.000   0.000   0.002   0.001   0.001  -0.000   0.000
  0.001  -0.000   0.000   0.004   0.002   0.002  -0.000   0.000
  0.002   0.005   0.003  -0.003   0.003   0.002   0.006   0.004
 -0.003  -0.001   0.008   0.002  -0.002  -0.004  -0.001   0.010
 -0.002  -0.003  -0.001   0.001   0.002  -0.003  -0.004  -0.001
 -0.000  -0.006  -0.004   0.004  -0.004  -0.000  -0.008  -0.005
  0.004  -0.000  -0.010  -0.001   0.003   0.005  -0.000  -0.012
  0.003   0.004  -0.000  -0.000  -0.001   0.004   0.005   0.000
 total augmentation occupancy for first ion, spin component:           1
  3.851   0.086   0.017  -0.102  -0.054  -1.978  -0.042  -0.015   0.050   0.024  -0.022   0.015   0.005   0.029   0.049  -0.000
  0.086   3.562   0.080  -0.092  -0.161  -0.042  -1.808  -0.039   0.049   0.077   0.040  -0.003  -0.092  -0.021   0.062  -0.003
  0.017   0.080   3.839  -0.137   0.005  -0.015  -0.039  -2.019   0.060   0.001  -0.053   0.006  -0.047  -0.056   0.009  -0.002
 -0.102  -0.092  -0.137   3.949  -0.159   0.050   0.049   0.061  -2.033   0.078  -0.104   0.023   0.040  -0.028   0.064   0.002
 -0.054  -0.161   0.005  -0.159   3.922   0.024   0.077   0.001   0.077  -2.058   0.108  -0.001  -0.019   0.046  -0.047  -0.002
 -1.978  -0.042  -0.015   0.050   0.024   1.027   0.021   0.011  -0.023  -0.011   0.017  -0.008   0.005  -0.016  -0.025   0.000
 -0.042  -1.808  -0.039   0.049   0.077   0.021   0.930   0.020  -0.026  -0.037  -0.016   0.002   0.045   0.008  -0.030   0.001
 -0.015  -0.039  -2.019   0.061   0.001   0.011   0.020   1.068  -0.027  -0.003   0.030  -0.003   0.024   0.026  -0.005   0.001
  0.050   0.049   0.060  -2.033   0.077  -0.023  -0.026  -0.027   1.058  -0.038   0.049  -0.012  -0.021   0.020  -0.027  -0.001
  0.024   0.077   0.001   0.078  -2.058  -0.011  -0.037  -0.003  -0.038   1.088  -0.062   0.002   0.011  -0.022   0.024   0.001
 -0.022   0.040  -0.053  -0.104   0.108   0.017  -0.016   0.030   0.049  -0.062   2.347  -0.283   0.015  -0.027  -0.051   0.001
  0.015  -0.003   0.006   0.023  -0.001  -0.008   0.002  -0.003  -0.012   0.002  -0.283   0.037   0.000  -0.001   0.001  -0.000
  0.005  -0.092  -0.047   0.040  -0.019   0.005   0.045   0.024  -0.021   0.011   0.015   0.000   0.285  -0.003  -0.009   0.005
  0.029  -0.021  -0.056  -0.028   0.046  -0.016   0.008   0.026   0.020  -0.022  -0.027  -0.001  -0.003   0.272   0.002  -0.000
  0.049   0.062   0.009   0.064  -0.047  -0.025  -0.030  -0.005  -0.027   0.024  -0.051   0.001  -0.009   0.002   0.264  -0.000
 -0.000  -0.003  -0.002   0.002  -0.002   0.000   0.001   0.001  -0.001   0.001   0.001  -0.000   0.005  -0.000  -0.000   0.000
  0.002  -0.000  -0.004  -0.000   0.001  -0.001   0.000   0.002   0.000  -0.001  -0.001   0.000  -0.000   0.005   0.000   0.000
  0.002   0.002  -0.000   0.000  -0.000  -0.001  -0.001   0.000  -0.000   0.000   0.001  -0.000  -0.000   0.000   0.004  -0.000


------------------------ aborting loop because EDIFF is reached ----------------------------------------


    CHARGE:  cpu time    0.0285: real time    0.0286
    FORLOC:  cpu time    0.0133: real time    0.0134
    FORNL :  cpu time    0.3065: real time    0.3088
    STRESS:  cpu time    0.9010: real time    1.0055
    FORCOR:  cpu time    0.0440: real time    0.0448
    FORHAR:  cpu time    0.0180: real time    0.0187
    MIXING:  cpu time    0.0017: real time    0.0017
    OFIELD:  cpu time    0.0000: real time    0.0000

  FORCE on cell =-STRESS in cart. coord.  units (eV):
  Direction    XX          YY          ZZ          XY          YZ          ZX
  --------------------------------------------------------------------------------------
  Alpha Z  1510.43966  1510.43966  1510.43966
  Ewald   -5274.16071 -6213.45589 -7645.62699   -47.75960  -170.46022  -297.47394
  Hartree  3591.30526  2653.55053  1321.90705   -38.77096  -173.82985  -247.27997
  E(xc)   -1295.82057 -1295.63471 -1296.03995    -0.03078    -0.02927     0.01847
  Local   -3489.16450 -1616.27656  1150.53638    87.28234   344.90015   545.79766
  n-local  -276.55066  -282.37368  -280.42846     0.19303    -1.94206     0.12854
  augment   222.58270   223.53860   223.07812    -0.01827     0.21246    -0.00033
  Kinetic  5011.42976  5020.31890  5016.24413    -0.91130     1.13409    -1.12347
  Fock        0.00000     0.00000     0.00000     0.00000     0.00000     0.00000
  -------------------------------------------------------------------------------------
  Total       0.06095     0.10686     0.10995    -0.01553    -0.01469     0.06697
  in kB       0.13375     0.23452     0.24128    -0.03409    -0.03225     0.14698
  external pressure =        0.20 kB  Pullay stress =        0.00 kB


 VOLUME and BASIS-vectors are now :
 -----------------------------------------------------------------------------
  energy-cutoff  :      300.00
  volume of cell :      730.07
      direct lattice vectors                 reciprocal lattice vectors
     6.905779590  0.000073088 -0.006929788     0.144806388 -0.000003049  0.000144087
     0.000233671 10.286852059 -0.017185753    -0.000000868  0.097211737  0.000160489
    -0.010226371 -0.016966781 10.277104042     0.000097641  0.000162559  0.097304041

  length of vectors
     6.905783067 10.286866417 10.277123135     0.144806460  0.097211870  0.097304226


 FORCES acting on ions
    electron-ion (+dipol)            ewald-force                    non-local-force                 convergence-correction
 -----------------------------------------------------------------------------------------------
   -.637E+02 0.180E+01 -.688E+02   0.635E+02 -.155E+01 0.683E+02   0.238E+00 -.252E+00 0.420E+00   0.539E-03 0.494E-02 0.775E-02
   0.301E+02 -.598E+02 -.106E+03   -.301E+02 0.592E+02 0.106E+03   -.554E-01 0.616E+00 -.240E+00   0.662E-04 -.515E-03 0.494E-02
   -.287E+02 -.322E+02 0.441E+02   0.284E+02 0.324E+02 -.433E+02   0.278E+00 -.209E+00 -.857E+00   0.111E-02 0.648E-02 0.187E-02
   0.269E+02 -.687E+02 -.378E+02   -.269E+02 0.691E+02 0.370E+02   0.779E-02 -.381E+00 0.794E+00   0.246E-02 0.380E-02 -.216E-02
   -.482E+02 0.470E+02 0.126E+03   0.478E+02 -.471E+02 -.126E+03   0.404E+00 0.133E+00 -.894E-01   -.177E-02 -.396E-02 -.232E-02
   0.261E+02 -.571E+02 0.470E+02   -.257E+02 0.572E+02 -.463E+02   -.318E+00 -.883E-01 -.689E+00   -.886E-03 0.577E-02 0.183E-02
   0.206E+02 0.921E+00 0.133E+03   -.204E+02 -.783E+00 -.133E+03   -.192E+00 -.142E+00 -.312E+00   0.364E-03 0.430E-02 -.559E-02
   -.210E+02 -.984E+02 -.129E+03   0.206E+02 0.978E+02 0.129E+03   0.383E+00 0.545E+00 0.362E+00   -.537E-03 0.405E-02 0.689E-02
   -.367E+01 0.891E+02 -.837E+02   0.408E+01 -.884E+02 0.835E+02   -.412E+00 -.717E+00 0.221E+00   -.289E-03 0.180E-02 0.673E-02
   -.374E+00 0.355E+02 0.586E+02   0.528E+00 -.357E+02 -.585E+02   -.153E+00 0.199E+00 -.138E+00   -.337E-03 -.686E-02 -.627E-02
   0.354E+02 0.578E+02 0.177E+02   -.350E+02 -.575E+02 -.173E+02   -.324E+00 -.285E+00 -.417E+00   -.436E-03 -.193E-02 -.107E-02
   0.327E+02 -.309E+03 -.396E+03   -.324E+02 0.308E+03 0.396E+03   -.355E+00 0.560E+00 0.360E+00   -.251E-03 0.983E-02 0.135E-01
   0.145E+03 0.118E+01 -.143E+03   -.144E+03 -.113E+01 0.143E+03   -.785E+00 -.641E-01 0.551E+00   -.191E-02 0.157E-01 0.261E-01
   -.902E+02 0.144E+03 0.130E+02   0.897E+02 -.144E+03 -.122E+02   0.510E+00 0.538E-01 -.787E+00   0.625E-03 -.536E-02 0.202E-02
   -.663E+02 -.219E+03 -.350E+03   0.661E+02 0.219E+03 0.350E+03   0.210E+00 0.306E+00 -.657E+00   0.270E-02 -.604E-02 0.116E-01
   -.771E+02 -.209E+03 -.115E+03   0.771E+02 0.209E+03 0.114E+03   0.375E-01 -.399E+00 0.554E+00   -.839E-02 0.966E-02 -.107E-01
   -.925E+02 0.231E+03 -.266E+03   0.921E+02 -.231E+03 0.266E+03   0.422E+00 0.701E-01 -.261E+00   0.421E-02 -.111E-01 0.802E-02
   0.124E+03 0.162E+03 0.335E+03   -.123E+03 -.162E+03 -.335E+03   -.432E+00 -.835E-01 -.838E-01   0.738E-02 -.110E-01 -.155E-01
   -.533E+02 0.378E+02 -.372E+03   0.539E+02 -.381E+02 0.371E+03   -.619E+00 0.257E+00 0.526E+00   -.516E-02 -.210E-01 0.207E-01
   -.450E+02 -.538E+02 0.494E+03   0.448E+02 0.541E+02 -.494E+03   0.202E+00 -.242E+00 0.513E-01   -.287E-02 0.136E-01 -.859E-02
   -.339E+02 -.291E+03 0.349E+03   0.337E+02 0.290E+03 -.349E+03   0.249E+00 0.412E+00 0.418E+00   0.133E-02 0.197E-01 -.225E-01
   0.510E+02 -.159E+03 -.139E+03   -.511E+02 0.159E+03 0.139E+03   0.368E-02 -.425E-01 0.291E+00   0.148E-01 -.696E-02 0.216E-02
   0.204E+02 0.175E+03 0.224E+03   -.206E+02 -.176E+03 -.224E+03   0.195E+00 0.355E+00 -.151E+00   0.510E-02 -.244E-01 -.166E-01
   0.267E+02 0.391E+03 -.452E+00   -.260E+02 -.392E+03 0.495E+00   -.740E+00 0.666E+00 -.505E-01   0.173E-01 -.167E-01 0.113E-01
   0.514E+02 0.618E+02 -.335E+03   -.522E+02 -.622E+02 0.335E+03   0.755E+00 0.464E+00 0.699E+00   0.534E-02 -.192E-01 0.124E-01
   0.359E+02 -.362E+03 0.276E+03   -.356E+02 0.362E+03 -.277E+03   -.309E+00 0.241E+00 0.552E+00   -.339E-03 0.160E-01 -.310E-01
   -.230E+02 -.428E+02 0.138E+02   0.231E+02 0.436E+02 -.146E+02   -.642E-01 -.774E+00 0.838E+00   -.133E-01 0.374E-02 0.442E-03
   -.245E+02 0.318E+03 0.106E+03   0.238E+02 -.319E+03 -.106E+03   0.793E+00 0.878E+00 0.149E+00   -.968E-02 -.162E-01 0.121E-01
   0.236E+02 -.599E+02 0.114E+03   -.239E+02 0.601E+02 -.113E+03   0.284E+00 -.152E+00 -.982E+00   0.263E-02 0.272E-02 -.901E-02
   -.162E+02 0.640E+02 0.826E+02   0.160E+02 -.635E+02 -.829E+02   0.170E+00 -.474E+00 0.282E+00   -.484E-03 -.291E-02 -.671E-02
   0.897E+01 0.123E+03 -.922E+02   -.919E+01 -.122E+03 0.920E+02   0.225E+00 -.798E+00 0.168E+00   0.199E-03 0.243E-02 0.585E-02
   0.446E+02 0.683E+02 -.904E+02   -.443E+02 -.679E+02 0.901E+02   -.316E+00 -.379E+00 0.241E+00   -.116E-02 -.617E-02 0.457E-02
   -.411E+02 -.161E+02 0.190E+02   0.398E+02 0.157E+02 -.184E+02   0.123E+01 0.361E+00 -.658E+00   0.112E-03 -.533E-02 -.238E-02
   -.238E+02 -.553E+02 0.149E+03   0.242E+02 0.555E+02 -.148E+03   -.306E+00 -.263E+00 -.844E+00   -.238E-02 0.235E-02 -.835E-02
   0.162E+02 0.802E+02 0.851E+02   -.159E+02 -.800E+02 -.855E+02   -.233E+00 -.225E+00 0.400E+00   0.214E-03 -.290E-02 -.707E-02
   0.342E+02 0.338E+01 0.373E+02   -.329E+02 -.378E+01 -.370E+02   -.127E+01 0.407E+00 -.332E+00   -.201E-02 -.486E-02 -.236E-02
 -----------------------------------------------------------------------------------------------
   0.276E+00 -.511E+00 -.328E+00   -.782E-13 0.142E-13 0.711E-12   -.291E+00 0.554E+00 0.328E+00   0.143E-01 -.467E-01 0.260E-02
 
 
 POSITION                                       TOTAL-FORCE (eV/Angst)
 -----------------------------------------------------------------------------------
      3.24995      3.50377     10.14081        -0.002411      0.001254     -0.002868
      0.07583     10.15866     10.25982         0.000534     -0.000734      0.001955
      1.66352      1.81463      1.90324         0.002965      0.002343     -0.001508
      0.02683      3.42467      6.77174        -0.000480     -0.000734     -0.000723
      1.64240      8.55482      5.15949        -0.001177      0.000522     -0.001054
      5.21941      1.85713      1.69721        -0.001371      0.001239     -0.001278
      3.49415     10.21447      3.36183         0.000404      0.000136     -0.000573
      5.10461      1.63743      8.57747         0.003202     -0.000815      0.000025
      5.21363      5.22574      8.59235         0.003586     -0.000988     -0.000291
      3.47260      6.89149      3.37152         0.000449     -0.003089      0.000356
      5.24258      5.06673      1.69589        -0.000538     -0.001184     -0.001480
      1.92101      1.44413      8.40014        -0.002206     -0.001772      0.000850
      0.22490      3.38754     10.03915        -0.000386     -0.002293     -0.000220
      1.62769      5.07988      1.83188         0.002065     -0.000399     -0.003322
      3.41808     10.09497      0.18493         0.000463     -0.001204      0.001941
      3.42445      3.47257      6.76644        -0.002202      0.002137      0.001090
      3.37794      6.95613      0.08839         0.000192     -0.001501     -0.000323
      5.23855      8.54655      5.20499        -0.000438     -0.001700     -0.000181
      5.17489      8.57022      8.42820         0.000371      0.001876      0.001473
      6.83269      0.04695      3.42942         0.000130     -0.000174      0.000236
      1.70561      1.65950      5.04572        -0.000573      0.001238     -0.001854
      0.02505      0.09118      6.82333         0.001506      0.003833     -0.001544
      6.84529      6.78506      3.45626         0.000821     -0.001228     -0.001501
      0.03700      6.76961      6.86583        -0.000458     -0.002707      0.003256
      1.68407      8.50524      8.37713        -0.000014      0.000472      0.000979
      5.19499      1.66036      5.07270         0.000679      0.002007     -0.001475
      3.47096      0.05519      6.59567        -0.000250      0.000103      0.001054
      3.37005      6.75806      6.79154         0.000624     -0.000023      0.000299
      6.82426      3.43521      3.69802         0.000175      0.001258     -0.001527
      1.68345      5.22161      5.10444        -0.001242      0.000175     -0.000278
      1.66492      5.37078      8.45524        -0.003773      0.000271      0.002631
      0.05969      6.94241     10.25574        -0.002267      0.001332      0.001653
      1.45217      8.50434      1.89497         0.003383     -0.001600     -0.000633
      3.49247      3.45960      3.61823         0.001096      0.002563      0.001863
      5.18154      5.20429      5.12520         0.000190      0.000620      0.001773
      5.41805      8.47128      1.75632        -0.003050     -0.001233      0.001198
 -----------------------------------------------------------------------------------
    total drift:                               -0.000671     -0.004085      0.003021


--------------------------------------------------------------------------------------------------------



  FREE ENERGIE OF THE ION-ELECTRON SYSTEM (eV)
  ---------------------------------------------------
  free  energy   TOTEN  =      -361.33153425 eV

  energy  without entropy=     -361.35125806  energy(sigma->0) =     -361.33810886
 
 d Force = 0.4346358E-04[ 0.264E-04, 0.605E-04]  d Energy = 0.6157922E-04-0.181E-04
 d Force = 0.4031057E+00[ 0.403E+00, 0.404E+00]  d Ewald  = 0.6858997E+00-0.283E+00


--------------------------------------------------------------------------------------------------------


    POTLOK:  cpu time    0.0331: real time    0.0350


--------------------------------------------------------------------------------------------------------




--------------------------------------------------------------------------------------------------------


  
 reached required accuracy - stopping structural energy minimisation
     LOOP+:  cpu time    4.6976: real time    5.6622
    4ORBIT:  cpu time    0.0000: real time    0.0000

 total amount of memory used by VASP on root node    67598. kBytes
========================================================================

   base      :      30000. kBytes
   nonlr-proj:      10471. kBytes
   fftplans  :       2814. kBytes
   grid      :       5360. kBytes
   one-center:        124. kBytes
   wavefun   :      18829. kBytes
 
  
  
 General timing and accounting informations for this job:
 ========================================================
  
                  Total CPU time used (sec):      146.600
                            User time (sec):      145.782
                          System time (sec):        0.818
                         Elapsed time (sec):      177.074
  
                   Maximum memory used (kb):      268160.
                   Average memory used (kb):           0.
  
                          Minor page faults:       129734
                          Major page faults:           30
                 Voluntary context switches:         6988
