       N       E                     dE             d eps       ncg     rms          rms(c)
DAV:   1     0.142897822981E+04    0.14290E+04   -0.95038E+04  4872   0.101E+03
DAV:   2    -0.132069725694E+03   -0.15610E+04   -0.14994E+04  5008   0.346E+02
DAV:   3    -0.351606355665E+03   -0.21954E+03   -0.20797E+03  7704   0.972E+01
DAV:   4    -0.377800388883E+03   -0.26194E+02   -0.24898E+02  7656   0.290E+01
DAV:   5    -0.380417376186E+03   -0.26170E+01   -0.25435E+01  7200   0.937E+00    0.657E+01
RMM:   6    -0.370366957805E+03    0.10050E+02   -0.29183E+01  6772   0.106E+01    0.316E+01
RMM:   7    -0.372582628867E+03   -0.22157E+01   -0.29161E+01  6322   0.769E+00    0.136E+01
RMM:   8    -0.365556282562E+03    0.70263E+01   -0.93752E+00  6897   0.515E+00    0.417E+00
RMM:   9    -0.365160701553E+03    0.39558E+00   -0.26343E+00  6995   0.213E+00    0.260E+00
RMM:  10    -0.365123051212E+03    0.37650E-01   -0.55660E-01  7075   0.117E+00    0.159E+00
RMM:  11    -0.365089718986E+03    0.33332E-01   -0.13718E-01  6947   0.604E-01    0.784E-01
RMM:  12    -0.365091237450E+03   -0.15185E-02   -0.75023E-02  7112   0.386E-01    0.510E-01
RMM:  13    -0.365087844193E+03    0.33933E-02   -0.23937E-02  7079   0.224E-01    0.247E-01
RMM:  14    -0.365088147121E+03   -0.30293E-03   -0.11237E-02  7201   0.115E-01    0.146E-01
RMM:  15    -0.365088472847E+03   -0.32573E-03   -0.52840E-03  7086   0.793E-02    0.689E-02
RMM:  16    -0.365088587113E+03   -0.11427E-03   -0.22257E-03  6481   0.446E-02    0.403E-02
RMM:  17    -0.365088620359E+03   -0.33245E-04   -0.96661E-04  5933   0.295E-02    0.189E-02
RMM:  18    -0.365088658653E+03   -0.38294E-04   -0.49427E-04  5973   0.233E-02    0.121E-02
RMM:  19    -0.365088668014E+03   -0.93603E-05   -0.14348E-04  4094   0.142E-02    0.634E-03
RMM:  20    -0.365088675536E+03   -0.75221E-05   -0.11651E-04  3975   0.122E-02    0.290E-03
RMM:  21    -0.365088678000E+03   -0.24646E-05   -0.48510E-05  3579   0.109E-02
   1 F= -.36508868E+03 E0= -.36509250E+03  d E =-.365089E+03
       N       E                     dE             d eps       ncg     rms          rms(c)
DAV:   1    -0.365155720863E+03   -0.67045E-01   -0.27528E+00  5224   0.547E+00    0.181E+00
RMM:   2    -0.365147293409E+03    0.84275E-02   -0.28437E-01  6538   0.143E+00    0.645E-01
RMM:   3    -0.365136277399E+03    0.11016E-01   -0.51980E-02  6992   0.448E-01    0.479E-01
RMM:   4    -0.365129658705E+03    0.66187E-02   -0.15276E-02  7054   0.262E-01    0.236E-01
RMM:   5    -0.365129174580E+03    0.48412E-03   -0.40921E-03  7015   0.132E-01    0.177E-01
RMM:   6    -0.365129323689E+03   -0.14911E-03   -0.18841E-03  7338   0.761E-02    0.106E-01
RMM:   7    -0.365129445532E+03   -0.12184E-03   -0.68730E-04  6884   0.515E-02    0.521E-02
RMM:   8    -0.365129518232E+03   -0.72700E-04   -0.38059E-04  6453   0.295E-02    0.421E-02
RMM:   9    -0.365129566327E+03   -0.48096E-04   -0.13278E-04  4990   0.224E-02    0.284E-02
RMM:  10    -0.365129609840E+03   -0.43513E-04   -0.10360E-04  4856   0.177E-02    0.117E-02
RMM:  11    -0.365129621110E+03   -0.11270E-04   -0.37352E-05  3845   0.147E-02    0.521E-03
RMM:  12    -0.365129624262E+03   -0.31514E-05   -0.19076E-05  3403   0.134E-02
   2 F= -.36512962E+03 E0= -.36513331E+03  d E =-.409463E-01
       N       E                     dE             d eps       ncg     rms          rms(c)
DAV:   1    -0.365287161454E+03   -0.15754E+00   -0.12758E+01  4840   0.118E+01    0.397E+00
RMM:   2    -0.365247099314E+03    0.40062E-01   -0.13221E+00  6514   0.309E+00    0.139E+00
RMM:   3    -0.365195359157E+03    0.51740E-01   -0.24104E-01  7006   0.966E-01    0.103E+00
RMM:   4    -0.365164434218E+03    0.30925E-01   -0.70717E-02  7065   0.562E-01    0.511E-01
RMM:   5    -0.365162303064E+03    0.21312E-02   -0.19075E-02  7052   0.281E-01    0.384E-01
RMM:   6    -0.365162909483E+03   -0.60642E-03   -0.85522E-03  7395   0.165E-01    0.230E-01
RMM:   7    -0.365163416579E+03   -0.50710E-03   -0.33271E-03  7591   0.110E-01    0.116E-01
RMM:   8    -0.365163708331E+03   -0.29175E-03   -0.17602E-03  7526   0.613E-02    0.938E-02
RMM:   9    -0.365163910977E+03   -0.20265E-03   -0.66065E-04  6714   0.436E-02    0.645E-02
RMM:  10    -0.365164068125E+03   -0.15715E-03   -0.41281E-04  6463   0.320E-02    0.290E-02
RMM:  11    -0.365164109081E+03   -0.40956E-04   -0.18401E-04  5513   0.241E-02    0.116E-02
RMM:  12    -0.365164122541E+03   -0.13460E-04   -0.96068E-05  5080   0.175E-02    0.878E-03
RMM:  13    -0.365164124369E+03   -0.18277E-05   -0.20967E-05  3484   0.132E-02
   3 F= -.36516412E+03 E0= -.36516747E+03  d E =-.754464E-01
       N       E                     dE             d eps       ncg     rms          rms(c)
DAV:   1    -0.365188741753E+03   -0.24619E-01   -0.27652E+00  4512   0.468E+00    0.588E-01
RMM:   2    -0.365200454172E+03   -0.11712E-01   -0.14239E-01  6578   0.990E-01    0.325E-01
RMM:   3    -0.365196419988E+03    0.40342E-02   -0.15489E-02  6798   0.278E-01    0.219E-01
RMM:   4    -0.365195953068E+03    0.46692E-03   -0.33775E-03  7096   0.918E-02    0.141E-01
RMM:   5    -0.365195841919E+03    0.11115E-03   -0.12431E-03  6995   0.610E-02    0.885E-02
RMM:   6    -0.365195808806E+03    0.33112E-04   -0.55037E-04  7069   0.463E-02    0.411E-02
RMM:   7    -0.365195799728E+03    0.90787E-05   -0.22139E-04  6101   0.215E-02    0.273E-02
RMM:   8    -0.365195797711E+03    0.20164E-05   -0.87289E-05  4578   0.151E-02
   4 F= -.36519580E+03 E0= -.36519919E+03  d E =-.316733E-01
       N       E                     dE             d eps       ncg     rms          rms(c)
DAV:   1    -0.365183655783E+03    0.12144E-01   -0.24916E+01  4480   0.141E+01    0.175E+00
RMM:   2    -0.365285895960E+03   -0.10224E+00   -0.12863E+00  6441   0.304E+00    0.895E-01
RMM:   3    -0.365260242176E+03    0.25654E-01   -0.14428E-01  6861   0.871E-01    0.681E-01
RMM:   4    -0.365255188125E+03    0.50541E-02   -0.29128E-02  7178   0.279E-01    0.439E-01
RMM:   5    -0.365254341156E+03    0.84697E-03   -0.11249E-02  7053   0.186E-01    0.278E-01
RMM:   6    -0.365254046882E+03    0.29427E-03   -0.51160E-03  7129   0.144E-01    0.125E-01
RMM:   7    -0.365254009239E+03    0.37643E-04   -0.21492E-03  7653   0.656E-02    0.842E-02
RMM:   8    -0.365254012795E+03   -0.35558E-05   -0.77585E-04  6868   0.387E-02    0.513E-02
RMM:   9    -0.365254029076E+03   -0.16281E-04   -0.31111E-04  6016   0.254E-02    0.291E-02
RMM:  10    -0.365254034026E+03   -0.49496E-05   -0.16168E-04  5661   0.201E-02    0.160E-02
RMM:  11    -0.365254032545E+03    0.14803E-05   -0.58400E-05  4401   0.147E-02
   5 F= -.36525403E+03 E0= -.36525761E+03  d E =-.899082E-01
       N       E                     dE             d eps       ncg     rms          rms(c)
DAV:   1    -0.364888932357E+03    0.36510E+00   -0.10021E+02  4480   0.286E+01    0.338E+00
RMM:   2    -0.365289706826E+03   -0.40077E+00   -0.52928E+00  6186   0.621E+00    0.150E+00
RMM:   3    -0.365240463834E+03    0.49243E-01   -0.59799E-01  6919   0.187E+00    0.138E+00
RMM:   4    -0.365215637140E+03    0.24827E-01   -0.11165E-01  7184   0.566E-01    0.893E-01
RMM:   5    -0.365212416184E+03    0.32210E-02   -0.44926E-02  7017   0.375E-01    0.558E-01
RMM:   6    -0.365211302940E+03    0.11132E-02   -0.21374E-02  7119   0.293E-01    0.251E-01
RMM:   7    -0.365211132878E+03    0.17006E-03   -0.85525E-03  7865   0.136E-01    0.163E-01
RMM:   8    -0.365211150031E+03   -0.17153E-04   -0.31307E-03  7616   0.756E-02    0.106E-01
RMM:   9    -0.365211251211E+03   -0.10118E-03   -0.13749E-03  7211   0.502E-02    0.650E-02
RMM:  10    -0.365211274147E+03   -0.22936E-04   -0.60633E-04  6743   0.367E-02    0.341E-02
RMM:  11    -0.365211276498E+03   -0.23507E-05   -0.25715E-04  5903   0.239E-02    0.217E-02
RMM:  12    -0.365211280090E+03   -0.35916E-05   -0.12225E-04  5472   0.182E-02    0.127E-02
RMM:  13    -0.365211279351E+03    0.73852E-06   -0.34641E-05  3650   0.127E-02
   6 F= -.36521128E+03 E0= -.36521529E+03  d E =-.471550E-01
       N       E                     dE             d eps       ncg     rms          rms(c)
DAV:   1    -0.365136950588E+03    0.74330E-01   -0.49411E+01  4480   0.198E+01    0.250E+00
RMM:   2    -0.365345649837E+03   -0.20870E+00   -0.26048E+00  6636   0.434E+00    0.127E+00
RMM:   3    -0.365272004317E+03    0.73646E-01   -0.25978E-01  6915   0.113E+00    0.825E-01
RMM:   4    -0.365264403241E+03    0.76011E-02   -0.60347E-02  7188   0.398E-01    0.539E-01
RMM:   5    -0.365262844895E+03    0.15583E-02   -0.19461E-02  7133   0.250E-01    0.347E-01
RMM:   6    -0.365263128976E+03   -0.28408E-03   -0.92429E-03  7182   0.170E-01    0.199E-01
RMM:   7    -0.365262934660E+03    0.19432E-03   -0.36124E-03  7712   0.921E-02    0.115E-01
RMM:   8    -0.365263051522E+03   -0.11686E-03   -0.15050E-03  7506   0.534E-02    0.674E-02
RMM:   9    -0.365263095933E+03   -0.44411E-04   -0.52164E-04  6490   0.339E-02    0.353E-02
RMM:  10    -0.365263128059E+03   -0.32127E-04   -0.27520E-04  6103   0.238E-02    0.232E-02
RMM:  11    -0.365263137389E+03   -0.93299E-05   -0.99660E-05  5095   0.173E-02
   7 F= -.36526314E+03 E0= -.36526684E+03  d E =-.990130E-01
       N       E                     dE             d eps       ncg     rms          rms(c)
DAV:   1    -0.365277593484E+03   -0.14465E-01   -0.79763E-01  4576   0.257E+00    0.503E-01
RMM:   2    -0.365279913595E+03   -0.23201E-02   -0.43776E-02  6907   0.535E-01    0.271E-01
RMM:   3    -0.365277034630E+03    0.28790E-02   -0.66518E-03  6992   0.148E-01    0.157E-01
RMM:   4    -0.365276629655E+03    0.40497E-03   -0.17139E-03  6969   0.783E-02    0.870E-02
RMM:   5    -0.365276539243E+03    0.90412E-04   -0.63436E-04  7132   0.468E-02    0.562E-02
RMM:   6    -0.365276526849E+03    0.12394E-04   -0.25162E-04  6497   0.261E-02    0.382E-02
RMM:   7    -0.365276515536E+03    0.11313E-04   -0.10438E-04  5354   0.161E-02    0.230E-02
RMM:   8    -0.365276511601E+03    0.39349E-05   -0.53460E-05  4219   0.141E-02
   8 F= -.36527651E+03 E0= -.36528022E+03  d E =-.133742E-01
       N       E                     dE             d eps       ncg     rms          rms(c)
DAV:   1    -0.365310223597E+03   -0.33708E-01   -0.71734E+00  4480   0.772E+00    0.148E+00
RMM:   2    -0.365330473056E+03   -0.20249E-01   -0.38600E-01  6917   0.159E+00    0.799E-01
RMM:   3    -0.365305938583E+03    0.24534E-01   -0.58898E-02  7031   0.438E-01    0.463E-01
RMM:   4    -0.365302483158E+03    0.34554E-02   -0.15238E-02  6954   0.234E-01    0.254E-01
RMM:   5    -0.365301776263E+03    0.70690E-03   -0.57575E-03  7119   0.139E-01    0.166E-01
RMM:   6    -0.365301731478E+03    0.44785E-04   -0.23060E-03  7274   0.784E-02    0.114E-01
RMM:   7    -0.365301697443E+03    0.34035E-04   -0.10290E-03  7178   0.448E-02    0.690E-02
RMM:   8    -0.365301711682E+03   -0.14239E-04   -0.46321E-04  6320   0.334E-02    0.354E-02
RMM:   9    -0.365301726264E+03   -0.14582E-04   -0.23527E-04  5727   0.252E-02    0.235E-02
RMM:  10    -0.365301732113E+03   -0.58491E-05   -0.11467E-04  5169   0.184E-02    0.181E-02
RMM:  11    -0.365301729375E+03    0.27386E-05   -0.38509E-05  4086   0.139E-02
   9 F= -.36530173E+03 E0= -.36530551E+03  d E =-.385920E-01
       N       E                     dE             d eps       ncg     rms          rms(c)
DAV:   1    -0.365317272683E+03   -0.15541E-01   -0.28657E+01  4480   0.154E+01    0.289E+00
RMM:   2    -0.365395395318E+03   -0.78123E-01   -0.15240E+00  6901   0.319E+00    0.156E+00
RMM:   3    -0.365304050994E+03    0.91344E-01   -0.23499E-01  7095   0.878E-01    0.932E-01
RMM:   4    -0.365289898136E+03    0.14153E-01   -0.59716E-02  6926   0.467E-01    0.514E-01
RMM:   5    -0.365286983238E+03    0.29149E-02   -0.23233E-02  7120   0.281E-01    0.332E-01
RMM:   6    -0.365286787367E+03    0.19587E-03   -0.92319E-03  7325   0.158E-01    0.225E-01
RMM:   7    -0.365286652990E+03    0.13438E-03   -0.40845E-03  7918   0.881E-02    0.136E-01
RMM:   8    -0.365286747362E+03   -0.94372E-04   -0.19198E-03  7493   0.646E-02    0.701E-02
RMM:   9    -0.365286823038E+03   -0.75676E-04   -0.92686E-04  7040   0.448E-02    0.477E-02
RMM:  10    -0.365286858052E+03   -0.35014E-04   -0.40340E-04  6416   0.303E-02    0.370E-02
RMM:  11    -0.365286863914E+03   -0.58618E-05   -0.17265E-04  5567   0.214E-02    0.159E-02
RMM:  12    -0.365286861888E+03    0.20266E-05   -0.75099E-05  4818   0.163E-02
  10 F= -.36528686E+03 E0= -.36529090E+03  d E =-.237245E-01
       N       E                     dE             d eps       ncg     rms          rms(c)
DAV:   1    -0.365323880937E+03   -0.37017E-01   -0.13008E+01  4480   0.104E+01    0.202E+00
RMM:   2    -0.365357535597E+03   -0.33655E-01   -0.70263E-01  6928   0.215E+00    0.105E+00
RMM:   3    -0.365313414211E+03    0.44121E-01   -0.10355E-01  6947   0.575E-01    0.607E-01
RMM:   4    -0.365307314216E+03    0.61000E-02   -0.28198E-02  7032   0.314E-01    0.334E-01
RMM:   5    -0.365306127701E+03    0.11865E-02   -0.99329E-03  7128   0.188E-01    0.218E-01
RMM:   6    -0.365306171102E+03   -0.43401E-04   -0.40182E-03  7376   0.101E-01    0.150E-01
RMM:   7    -0.365306185984E+03   -0.14882E-04   -0.17123E-03  7580   0.613E-02    0.904E-02
RMM:   8    -0.365306278731E+03   -0.92747E-04   -0.82379E-04  6908   0.415E-02    0.474E-02
RMM:   9    -0.365306340932E+03   -0.62201E-04   -0.36827E-04  6231   0.307E-02    0.306E-02
RMM:  10    -0.365306371691E+03   -0.30759E-04   -0.17540E-04  5676   0.216E-02    0.233E-02
RMM:  11    -0.365306388977E+03   -0.17286E-04   -0.71543E-05  4823   0.162E-02    0.948E-03
RMM:  12    -0.365306394481E+03   -0.55036E-05   -0.26596E-05  3744   0.131E-02
  11 F= -.36530639E+03 E0= -.36531025E+03  d E =-.432571E-01
       N       E                     dE             d eps       ncg     rms          rms(c)
DAV:   1    -0.365315943225E+03   -0.95542E-02   -0.46536E-01  4736   0.201E+00    0.448E-01
RMM:   2    -0.365315900207E+03    0.43017E-04   -0.25196E-02  6555   0.429E-01    0.182E-01
RMM:   3    -0.365315241775E+03    0.65843E-03   -0.41587E-03  6890   0.128E-01    0.132E-01
RMM:   4    -0.365314848063E+03    0.39371E-03   -0.12152E-03  7056   0.667E-02    0.676E-02
RMM:   5    -0.365314812950E+03    0.35113E-04   -0.42338E-04  7034   0.380E-02    0.481E-02
RMM:   6    -0.365314825305E+03   -0.12355E-04   -0.15538E-04  6244   0.209E-02    0.316E-02
RMM:   7    -0.365314836622E+03   -0.11317E-04   -0.58634E-05  4470   0.152E-02    0.176E-02
RMM:   8    -0.365314845976E+03   -0.93538E-05   -0.34636E-05  3660   0.134E-02
  12 F= -.36531485E+03 E0= -.36531866E+03  d E =-.845149E-02
       N       E                     dE             d eps       ncg     rms          rms(c)
DAV:   1    -0.365340634505E+03   -0.25798E-01   -0.41906E+00  4592   0.603E+00    0.136E+00
RMM:   2    -0.365340275832E+03    0.35867E-03   -0.22982E-01  6672   0.129E+00    0.551E-01
RMM:   3    -0.365334479160E+03    0.57967E-02   -0.38685E-02  6959   0.379E-01    0.400E-01
RMM:   4    -0.365330928124E+03    0.35510E-02   -0.11653E-02  7111   0.203E-01    0.205E-01
RMM:   5    -0.365330591184E+03    0.33694E-03   -0.40508E-03  7075   0.116E-01    0.147E-01
RMM:   6    -0.365330655402E+03   -0.64218E-04   -0.15649E-03  7417   0.636E-02    0.958E-02
RMM:   7    -0.365330720180E+03   -0.64779E-04   -0.65549E-04  6589   0.437E-02    0.524E-02
RMM:   8    -0.365330770987E+03   -0.50807E-04   -0.36769E-04  6385   0.302E-02    0.324E-02
RMM:   9    -0.365330802147E+03   -0.31159E-04   -0.14023E-04  5096   0.206E-02    0.233E-02
RMM:  10    -0.365330825075E+03   -0.22929E-04   -0.69512E-05  4592   0.160E-02    0.113E-02
RMM:  11    -0.365330832872E+03   -0.77970E-05   -0.26807E-05  3662   0.135E-02
  13 F= -.36533083E+03 E0= -.36533452E+03  d E =-.244384E-01
       N       E                     dE             d eps       ncg     rms          rms(c)
DAV:   1    -0.365359381142E+03   -0.28556E-01   -0.16776E+01  4592   0.121E+01    0.277E+00
RMM:   2    -0.365357334428E+03    0.20467E-02   -0.92659E-01  6683   0.260E+00    0.111E+00
RMM:   3    -0.365334330262E+03    0.23004E-01   -0.15691E-01  6952   0.765E-01    0.802E-01
RMM:   4    -0.365319871298E+03    0.14459E-01   -0.47005E-02  7109   0.410E-01    0.410E-01
RMM:   5    -0.365318532273E+03    0.13390E-02   -0.15960E-02  7054   0.233E-01    0.295E-01
RMM:   6    -0.365318735724E+03   -0.20345E-03   -0.63027E-03  7573   0.129E-01    0.190E-01
RMM:   7    -0.365318957712E+03   -0.22199E-03   -0.26536E-03  7583   0.884E-02    0.103E-01
RMM:   8    -0.365319118384E+03   -0.16067E-03   -0.13914E-03  7344   0.548E-02    0.659E-02
RMM:   9    -0.365319221271E+03   -0.10289E-03   -0.53201E-04  6444   0.358E-02    0.473E-02
RMM:  10    -0.365319295256E+03   -0.73985E-04   -0.27460E-04  6136   0.266E-02    0.236E-02
RMM:  11    -0.365319315910E+03   -0.20654E-04   -0.10885E-04  5078   0.199E-02    0.957E-03
RMM:  12    -0.365319323611E+03   -0.77009E-05   -0.53617E-05  4356   0.151E-02
  14 F= -.36531932E+03 E0= -.36532283E+03  d E =-.129291E-01
       N       E                     dE             d eps       ncg     rms          rms(c)
DAV:   1    -0.365351405502E+03   -0.32090E-01   -0.82779E+00  4520   0.851E+00    0.188E+00
RMM:   2    -0.365353777347E+03   -0.23718E-02   -0.45646E-01  6703   0.182E+00    0.786E-01
RMM:   3    -0.365341925892E+03    0.11851E-01   -0.75675E-02  6950   0.529E-01    0.577E-01
RMM:   4    -0.365334639469E+03    0.72864E-02   -0.20908E-02  7032   0.279E-01    0.307E-01
RMM:   5    -0.365333611324E+03    0.10281E-02   -0.77617E-03  7106   0.158E-01    0.214E-01
RMM:   6    -0.365333520862E+03    0.90463E-04   -0.28647E-03  7312   0.894E-02    0.135E-01
RMM:   7    -0.365333505058E+03    0.15804E-04   -0.13691E-03  7408   0.573E-02    0.713E-02
RMM:   8    -0.365333518693E+03   -0.13636E-04   -0.64238E-04  6778   0.392E-02    0.432E-02
RMM:   9    -0.365333539955E+03   -0.21261E-04   -0.24654E-04  5640   0.260E-02    0.334E-02
RMM:  10    -0.365333552074E+03   -0.12120E-04   -0.12805E-04  5252   0.201E-02    0.175E-02
RMM:  11    -0.365333549919E+03    0.21552E-05   -0.58762E-05  4611   0.160E-02
  15 F= -.36533355E+03 E0= -.36533717E+03  d E =-.271554E-01
       N       E                     dE             d eps       ncg     rms          rms(c)
DAV:   1    -0.365338213517E+03   -0.46614E-02   -0.32664E-01  4672   0.161E+00    0.107E-01
RMM:   2    -0.365339027714E+03   -0.81420E-03   -0.99848E-03  5991   0.287E-01    0.635E-02
RMM:   3    -0.365338930424E+03    0.97291E-04   -0.12403E-03  6642   0.855E-02    0.495E-02
RMM:   4    -0.365338918708E+03    0.11716E-04   -0.27523E-04  6425   0.230E-02    0.336E-02
RMM:   5    -0.365338913013E+03    0.56945E-05   -0.88485E-05  5222   0.160E-02
  16 F= -.36533891E+03 E0= -.36534259E+03  d E =-.536309E-02
       N       E                     dE             d eps       ncg     rms          rms(c)
DAV:   1    -0.365346227169E+03   -0.73085E-02   -0.29389E+00  4480   0.482E+00    0.319E-01
RMM:   2    -0.365353550231E+03   -0.73231E-02   -0.90145E-02  5950   0.864E-01    0.187E-01
RMM:   3    -0.365352857439E+03    0.69279E-03   -0.12007E-02  6749   0.260E-01    0.147E-01
RMM:   4    -0.365352783705E+03    0.73733E-04   -0.26570E-03  7769   0.690E-02    0.982E-02
RMM:   5    -0.365352758266E+03    0.25439E-04   -0.95262E-04  7134   0.510E-02    0.543E-02
RMM:   6    -0.365352753841E+03    0.44250E-05   -0.39426E-04  6778   0.329E-02    0.223E-02
RMM:   7    -0.365352753587E+03    0.25391E-06   -0.14450E-04  5179   0.166E-02    0.141E-02
RMM:   8    -0.365352757056E+03   -0.34690E-05   -0.58319E-05  3627   0.131E-02
  17 F= -.36535276E+03 E0= -.36535662E+03  d E =-.192071E-01
       N       E                     dE             d eps       ncg     rms          rms(c)
DAV:   1    -0.365344203920E+03    0.85497E-02   -0.11765E+01  4480   0.965E+00    0.647E-01
RMM:   2    -0.365373243455E+03   -0.29040E-01   -0.36132E-01  5896   0.174E+00    0.368E-01
RMM:   3    -0.365370685372E+03    0.25581E-02   -0.47649E-02  6754   0.521E-01    0.294E-01
RMM:   4    -0.365370332846E+03    0.35253E-03   -0.10474E-02  7774   0.139E-01    0.197E-01
RMM:   5    -0.365370228858E+03    0.10399E-03   -0.37105E-03  7421   0.101E-01    0.112E-01
RMM:   6    -0.365370204189E+03    0.24669E-04   -0.15676E-03  7437   0.662E-02    0.460E-02
RMM:   7    -0.365370204585E+03   -0.39621E-06   -0.62874E-04  7214   0.321E-02    0.286E-02
RMM:   8    -0.365370213921E+03   -0.93356E-05   -0.20182E-04  5391   0.197E-02    0.186E-02
RMM:   9    -0.365370223872E+03   -0.99515E-05   -0.11751E-04  4608   0.162E-02    0.893E-03
RMM:  10    -0.365370226938E+03   -0.30658E-05   -0.36381E-05  3472   0.124E-02
  18 F= -.36537023E+03 E0= -.36537458E+03  d E =-.366770E-01
       N       E                     dE             d eps       ncg     rms          rms(c)
DAV:   1    -0.365256385551E+03    0.11384E+00   -0.47030E+01  4544   0.193E+01    0.141E+00
RMM:   2    -0.365373470388E+03   -0.11708E+00   -0.14704E+00  5836   0.352E+00    0.732E-01
RMM:   3    -0.365364719612E+03    0.87508E-02   -0.19723E-01  6815   0.105E+00    0.620E-01
RMM:   4    -0.365362985747E+03    0.17339E-02   -0.42086E-02  7819   0.278E-01    0.422E-01
RMM:   5    -0.365362724001E+03    0.26175E-03   -0.14526E-02  7459   0.197E-01    0.258E-01
RMM:   6    -0.365362457573E+03    0.26643E-03   -0.66177E-03  7396   0.142E-01    0.977E-02
RMM:   7    -0.365362440015E+03    0.17558E-04   -0.26542E-03  7930   0.688E-02    0.586E-02
RMM:   8    -0.365362472811E+03   -0.32795E-04   -0.94940E-04  7045   0.383E-02    0.387E-02
RMM:   9    -0.365362501551E+03   -0.28741E-04   -0.42396E-04  6908   0.303E-02    0.211E-02
RMM:  10    -0.365362514116E+03   -0.12565E-04   -0.15759E-04  5120   0.177E-02    0.972E-03
RMM:  11    -0.365362519388E+03   -0.52713E-05   -0.74220E-05  4159   0.147E-02
  19 F= -.36536252E+03 E0= -.36536817E+03  d E =-.289695E-01
       N       E                     dE             d eps       ncg     rms          rms(c)
DAV:   1    -0.365328263733E+03    0.34250E-01   -0.19976E+01  4480   0.126E+01    0.914E-01
RMM:   2    -0.365378944128E+03   -0.50680E-01   -0.61702E-01  5815   0.230E+00    0.487E-01
RMM:   3    -0.365375198528E+03    0.37456E-02   -0.83116E-02  6830   0.678E-01    0.428E-01
RMM:   4    -0.365374547912E+03    0.65062E-03   -0.17101E-02  7913   0.175E-01    0.301E-01
RMM:   5    -0.365374380383E+03    0.16753E-03   -0.58388E-03  7381   0.128E-01    0.179E-01
RMM:   6    -0.365374136730E+03    0.24365E-03   -0.27718E-03  7079   0.990E-02    0.605E-02
RMM:   7    -0.365374114903E+03    0.21827E-04   -0.10448E-03  7305   0.409E-02    0.392E-02
RMM:   8    -0.365374118713E+03   -0.38099E-05   -0.32037E-04  5897   0.238E-02    0.251E-02
RMM:   9    -0.365374127667E+03   -0.89532E-05   -0.17776E-04  5617   0.203E-02    0.126E-02
RMM:  10    -0.365374129220E+03   -0.15532E-05   -0.55811E-05  3721   0.128E-02
  20 F= -.36537413E+03 E0= -.36537890E+03  d E =-.405793E-01
       N       E                     dE             d eps       ncg     rms          rms(c)
DAV:   1    -0.365401145627E+03   -0.27018E-01   -0.37466E+00  4704   0.585E+00    0.145E+00
RMM:   2    -0.365398060024E+03    0.30856E-02   -0.23182E-01  6737   0.128E+00    0.591E-01
RMM:   3    -0.365389044574E+03    0.90155E-02   -0.42127E-02  7010   0.382E-01    0.421E-01
RMM:   4    -0.365384910206E+03    0.41344E-02   -0.12622E-02  7072   0.218E-01    0.224E-01
RMM:   5    -0.365384342497E+03    0.56771E-03   -0.37586E-03  7071   0.126E-01    0.159E-01
RMM:   6    -0.365384390623E+03   -0.48126E-04   -0.15849E-03  7246   0.654E-02    0.983E-02
RMM:   7    -0.365384388258E+03    0.23651E-05   -0.62465E-04  6682   0.446E-02    0.536E-02
RMM:   8    -0.365384403136E+03   -0.14878E-04   -0.34152E-04  6130   0.280E-02    0.344E-02
RMM:   9    -0.365384411359E+03   -0.82229E-05   -0.13530E-04  4883   0.214E-02    0.241E-02
RMM:  10    -0.365384414610E+03   -0.32504E-05   -0.72192E-05  4683   0.159E-02
  21 F= -.36538441E+03 E0= -.36538963E+03  d E =-.102854E-01
       N       E                     dE             d eps       ncg     rms          rms(c)
DAV:   1    -0.365387977989E+03   -0.35666E-02   -0.63806E-01  4832   0.241E+00    0.595E-01
RMM:   2    -0.365387487171E+03    0.49082E-03   -0.39315E-02  6728   0.526E-01    0.241E-01
RMM:   3    -0.365385958844E+03    0.15283E-02   -0.71555E-03  6991   0.157E-01    0.171E-01
RMM:   4    -0.365385273605E+03    0.68524E-03   -0.21906E-03  7035   0.901E-02    0.908E-02
RMM:   5    -0.365385182461E+03    0.91144E-04   -0.67059E-04  7052   0.521E-02    0.650E-02
RMM:   6    -0.365385187838E+03   -0.53766E-05   -0.28452E-04  6457   0.273E-02    0.412E-02
RMM:   7    -0.365385182555E+03    0.52829E-05   -0.11096E-04  5503   0.202E-02    0.230E-02
RMM:   8    -0.365385181993E+03    0.56188E-06   -0.70807E-05  4396   0.152E-02
  22 F= -.36538518E+03 E0= -.36539057E+03  d E =-.110528E-01
       N       E                     dE             d eps       ncg     rms          rms(c)
DAV:   1    -0.365390921762E+03   -0.57392E-02   -0.10832E+00  4480   0.285E+00    0.311E-01
RMM:   2    -0.365393115925E+03   -0.21942E-02   -0.31296E-02  6709   0.519E-01    0.167E-01
RMM:   3    -0.365392797391E+03    0.31853E-03   -0.49141E-03  6919   0.130E-01    0.125E-01
RMM:   4    -0.365392672819E+03    0.12457E-03   -0.12100E-03  7109   0.522E-02    0.779E-02
RMM:   5    -0.365392650151E+03    0.22669E-04   -0.50149E-04  6996   0.364E-02    0.402E-02
RMM:   6    -0.365392635907E+03    0.14244E-04   -0.19839E-04  6507   0.240E-02    0.203E-02
RMM:   7    -0.365392639998E+03   -0.40909E-05   -0.52395E-05  3777   0.125E-02
  23 F= -.36539264E+03 E0= -.36539815E+03  d E =-.745800E-02
       N       E                     dE             d eps       ncg     rms          rms(c)
DAV:   1    -0.365394248364E+03   -0.16125E-02   -0.75560E+00  4480   0.752E+00    0.814E-01
RMM:   2    -0.365409327134E+03   -0.15079E-01   -0.21686E-01  6660   0.136E+00    0.426E-01
RMM:   3    -0.365407130171E+03    0.21970E-02   -0.33414E-02  6912   0.345E-01    0.316E-01
RMM:   4    -0.365406321382E+03    0.80879E-03   -0.82724E-03  7225   0.137E-01    0.194E-01
RMM:   5    -0.365406211392E+03    0.10999E-03   -0.33474E-03  7170   0.931E-02    0.103E-01
RMM:   6    -0.365406136798E+03    0.74593E-04   -0.13494E-03  7306   0.607E-02    0.549E-02
RMM:   7    -0.365406172764E+03   -0.35966E-04   -0.51192E-04  6387   0.291E-02    0.358E-02
RMM:   8    -0.365406188914E+03   -0.16150E-04   -0.21078E-04  5615   0.209E-02    0.224E-02
RMM:   9    -0.365406199617E+03   -0.10703E-04   -0.81986E-05  4578   0.149E-02    0.118E-02
RMM:  10    -0.365406204128E+03   -0.45113E-05   -0.32920E-05  3482   0.124E-02
  24 F= -.36540620E+03 E0= -.36541201E+03  d E =-.210221E-01
       N       E                     dE             d eps       ncg     rms          rms(c)
DAV:   1    -0.365357321031E+03    0.48879E-01   -0.30213E+01  4480   0.150E+01    0.164E+00
RMM:   2    -0.365416047569E+03   -0.58727E-01   -0.86382E-01  6666   0.271E+00    0.826E-01
RMM:   3    -0.365408193988E+03    0.78536E-02   -0.13267E-01  6941   0.692E-01    0.614E-01
RMM:   4    -0.365404836208E+03    0.33578E-02   -0.32799E-02  7256   0.276E-01    0.370E-01
RMM:   5    -0.365404455664E+03    0.38054E-03   -0.12965E-02  7241   0.184E-01    0.199E-01
RMM:   6    -0.365404200640E+03    0.25502E-03   -0.51286E-03  7390   0.117E-01    0.109E-01
RMM:   7    -0.365404328866E+03   -0.12823E-03   -0.20128E-03  7536   0.584E-02    0.683E-02
RMM:   8    -0.365404381945E+03   -0.53079E-04   -0.77675E-04  6861   0.361E-02    0.436E-02
RMM:   9    -0.365404412640E+03   -0.30695E-04   -0.29115E-04  5755   0.252E-02    0.241E-02
RMM:  10    -0.365404427997E+03   -0.15357E-04   -0.14455E-04  5492   0.190E-02    0.132E-02
RMM:  11    -0.365404431609E+03   -0.36116E-05   -0.49637E-05  3986   0.136E-02
  25 F= -.36540443E+03 E0= -.36541051E+03  d E =-.192496E-01
       N       E                     dE             d eps       ncg     rms          rms(c)
DAV:   1    -0.365394133209E+03    0.10295E-01   -0.97887E+00  4480   0.857E+00    0.930E-01
RMM:   2    -0.365414621285E+03   -0.20488E-01   -0.28245E-01  6615   0.157E+00    0.500E-01
RMM:   3    -0.365411892424E+03    0.27289E-02   -0.43283E-02  7002   0.399E-01    0.381E-01
RMM:   4    -0.365410807481E+03    0.10849E-02   -0.10150E-02  7274   0.154E-01    0.243E-01
RMM:   5    -0.365410551549E+03    0.25593E-03   -0.41316E-03  6963   0.109E-01    0.123E-01
RMM:   6    -0.365410353145E+03    0.19840E-03   -0.17318E-03  7254   0.718E-02    0.617E-02
RMM:   7    -0.365410377242E+03   -0.24098E-04   -0.63707E-04  6668   0.324E-02    0.401E-02
RMM:   8    -0.365410382029E+03   -0.47866E-05   -0.23839E-04  5750   0.217E-02    0.259E-02
RMM:   9    -0.365410383744E+03   -0.17153E-05   -0.97040E-05  4699   0.160E-02
  26 F= -.36541038E+03 E0= -.36541637E+03  d E =-.252018E-01
       N       E                     dE             d eps       ncg     rms          rms(c)
DAV:   1    -0.365416187288E+03   -0.58053E-02   -0.63622E-01  4720   0.228E+00    0.403E-01
RMM:   2    -0.365417221792E+03   -0.10345E-02   -0.29746E-02  6889   0.464E-01    0.196E-01
RMM:   3    -0.365416176939E+03    0.10449E-02   -0.42699E-03  6930   0.120E-01    0.129E-01
RMM:   4    -0.365415904981E+03    0.27196E-03   -0.11817E-03  7094   0.637E-02    0.718E-02
RMM:   5    -0.365415853948E+03    0.51033E-04   -0.44838E-04  7049   0.390E-02    0.443E-02
RMM:   6    -0.365415856841E+03   -0.28930E-05   -0.16232E-04  6280   0.218E-02    0.284E-02
RMM:   7    -0.365415865427E+03   -0.85863E-05   -0.60176E-05  4293   0.142E-02
  27 F= -.36541587E+03 E0= -.36542205E+03  d E =-.548168E-02
       N       E                     dE             d eps       ncg     rms          rms(c)
DAV:   1    -0.365426898618E+03   -0.11042E-01   -0.57264E+00  4592   0.685E+00    0.122E+00
RMM:   2    -0.365435902300E+03   -0.90037E-02   -0.26527E-01  6888   0.139E+00    0.577E-01
RMM:   3    -0.365427137219E+03    0.87651E-02   -0.38720E-02  6933   0.358E-01    0.379E-01
RMM:   4    -0.365424784858E+03    0.23524E-02   -0.11024E-02  7108   0.192E-01    0.208E-01
RMM:   5    -0.365424403346E+03    0.38151E-03   -0.41955E-03  7066   0.117E-01    0.130E-01
RMM:   6    -0.365424425731E+03   -0.22385E-04   -0.15744E-03  7333   0.643E-02    0.854E-02
RMM:   7    -0.365424496269E+03   -0.70538E-04   -0.68831E-04  6785   0.407E-02    0.483E-02
RMM:   8    -0.365424532985E+03   -0.36716E-04   -0.28849E-04  5997   0.270E-02    0.297E-02
RMM:   9    -0.365424557639E+03   -0.24655E-04   -0.13823E-04  5130   0.200E-02    0.207E-02
RMM:  10    -0.365424571537E+03   -0.13897E-04   -0.62335E-05  4581   0.151E-02    0.121E-02
RMM:  11    -0.365424578679E+03   -0.71427E-05   -0.24783E-05  3528   0.123E-02
  28 F= -.36542458E+03 E0= -.36543135E+03  d E =-.141949E-01
       N       E                     dE             d eps       ncg     rms          rms(c)
DAV:   1    -0.365429644427E+03   -0.50729E-02   -0.44550E-01  4784   0.198E+00    0.424E-01
RMM:   2    -0.365429852042E+03   -0.20761E-03   -0.24118E-02  6735   0.422E-01    0.170E-01
RMM:   3    -0.365429392019E+03    0.46002E-03   -0.38147E-03  6931   0.119E-01    0.128E-01
RMM:   4    -0.365429018033E+03    0.37399E-03   -0.11893E-03  7088   0.652E-02    0.667E-02
RMM:   5    -0.365428977086E+03    0.40947E-04   -0.40626E-04  7039   0.374E-02    0.466E-02
RMM:   6    -0.365428969740E+03    0.73457E-05   -0.15783E-04  6300   0.209E-02    0.281E-02
RMM:   7    -0.365428962938E+03    0.68027E-05   -0.58435E-05  4292   0.143E-02
  29 F= -.36542896E+03 E0= -.36543596E+03  d E =-.438426E-02
       N       E                     dE             d eps       ncg     rms          rms(c)
DAV:   1    -0.365440424463E+03   -0.11455E-01   -0.40024E+00  4592   0.593E+00    0.125E+00
RMM:   2    -0.365442291816E+03   -0.18674E-02   -0.21325E-01  6683   0.126E+00    0.503E-01
RMM:   3    -0.365437998061E+03    0.42938E-02   -0.32792E-02  6907   0.358E-01    0.377E-01
RMM:   4    -0.365434773638E+03    0.32244E-02   -0.10171E-02  7074   0.193E-01    0.196E-01
RMM:   5    -0.365434456014E+03    0.31762E-03   -0.34768E-03  7084   0.110E-01    0.138E-01
RMM:   6    -0.365434462301E+03   -0.62874E-05   -0.13552E-03  7372   0.615E-02    0.842E-02
RMM:   7    -0.365434467460E+03   -0.51584E-05   -0.60464E-04  6603   0.390E-02    0.460E-02
RMM:   8    -0.365434478793E+03   -0.11333E-04   -0.28912E-04  6067   0.271E-02    0.304E-02
RMM:   9    -0.365434484707E+03   -0.59141E-05   -0.12039E-04  4993   0.202E-02    0.222E-02
RMM:  10    -0.365434487023E+03   -0.23161E-05   -0.62632E-05  4582   0.151E-02
  30 F= -.36543449E+03 E0= -.36544216E+03  d E =-.990834E-02
       N       E                     dE             d eps       ncg     rms          rms(c)
DAV:   1    -0.365436221788E+03   -0.17371E-02   -0.64022E-01  4544   0.224E+00    0.163E-01
RMM:   2    -0.365437806926E+03   -0.15851E-02   -0.19804E-02  6499   0.409E-01    0.914E-02
RMM:   3    -0.365437722460E+03    0.84466E-04   -0.27725E-03  6844   0.109E-01    0.737E-02
RMM:   4    -0.365437687642E+03    0.34818E-04   -0.62565E-04  7221   0.370E-02    0.466E-02
RMM:   5    -0.365437679099E+03    0.85433E-05   -0.24252E-04  6244   0.254E-02    0.232E-02
RMM:   6    -0.365437677106E+03    0.19924E-05   -0.94314E-05  5362   0.175E-02
  31 F= -.36543768E+03 E0= -.36544553E+03  d E =-.319008E-02
       N       E                     dE             d eps       ncg     rms          rms(c)
DAV:   1    -0.365432108742E+03    0.55704E-02   -0.57578E+00  4480   0.671E+00    0.484E-01
RMM:   2    -0.365446182606E+03   -0.14074E-01   -0.17691E-01  6388   0.123E+00    0.266E-01
RMM:   3    -0.365445455207E+03    0.72740E-03   -0.24384E-02  6867   0.329E-01    0.214E-01
RMM:   4    -0.365445135670E+03    0.31954E-03   -0.52737E-03  7710   0.107E-01    0.135E-01
RMM:   5    -0.365445075991E+03    0.59678E-04   -0.21231E-03  7243   0.733E-02    0.690E-02
RMM:   6    -0.365445060754E+03    0.15237E-04   -0.78979E-04  7311   0.482E-02    0.305E-02
RMM:   7    -0.365445071692E+03   -0.10938E-04   -0.27523E-04  5777   0.224E-02    0.194E-02
RMM:   8    -0.365445080147E+03   -0.84549E-05   -0.12097E-04  4728   0.176E-02    0.125E-02
RMM:   9    -0.365445083946E+03   -0.37986E-05   -0.48602E-05  3800   0.134E-02
  32 F= -.36544508E+03 E0= -.36545348E+03  d E =-.105969E-01
       N       E                     dE             d eps       ncg     rms          rms(c)
DAV:   1    -0.365397164007E+03    0.47916E-01   -0.23024E+01  4480   0.134E+01    0.986E-01
RMM:   2    -0.365453017099E+03   -0.55853E-01   -0.70747E-01  6318   0.248E+00    0.525E-01
RMM:   3    -0.365450620316E+03    0.23968E-02   -0.97828E-02  6913   0.664E-01    0.422E-01
RMM:   4    -0.365449350772E+03    0.12695E-02   -0.21208E-02  7705   0.212E-01    0.272E-01
RMM:   5    -0.365449135647E+03    0.21512E-03   -0.82781E-03  7333   0.146E-01    0.144E-01
RMM:   6    -0.365449060902E+03    0.74744E-04   -0.31975E-03  7608   0.973E-02    0.609E-02
RMM:   7    -0.365449110626E+03   -0.49724E-04   -0.12314E-03  7400   0.448E-02    0.386E-02
RMM:   8    -0.365449138942E+03   -0.28316E-04   -0.44763E-04  6346   0.269E-02    0.259E-02
RMM:   9    -0.365449152718E+03   -0.13776E-04   -0.18244E-04  5652   0.213E-02    0.116E-02
RMM:  10    -0.365449159039E+03   -0.63212E-05   -0.80728E-05  4400   0.150E-02
  33 F= -.36544916E+03 E0= -.36545860E+03  d E =-.146720E-01
       N       E                     dE             d eps       ncg     rms          rms(c)
DAV:   1    -0.365445268570E+03    0.38841E-02   -0.19516E+00  4480   0.390E+00    0.293E-01
RMM:   2    -0.365449965019E+03   -0.46964E-02   -0.59269E-02  6261   0.713E-01    0.153E-01
RMM:   3    -0.365449739159E+03    0.22586E-03   -0.78874E-03  6843   0.193E-01    0.128E-01
RMM:   4    -0.365449616755E+03    0.12240E-03   -0.16224E-03  7600   0.607E-02    0.823E-02
RMM:   5    -0.365449584408E+03    0.32347E-04   -0.62736E-04  6974   0.417E-02    0.416E-02
RMM:   6    -0.365449566480E+03    0.17928E-04   -0.23860E-04  6487   0.274E-02    0.173E-02
RMM:   7    -0.365449566257E+03    0.22339E-06   -0.62585E-05  4064   0.129E-02
  34 F= -.36544957E+03 E0= -.36545872E+03  d E =-.150792E-01
       N       E                     dE             d eps       ncg     rms          rms(c)
DAV:   1    -0.365455427033E+03   -0.58606E-02   -0.98472E-01  4608   0.294E+00    0.612E-01
RMM:   2    -0.365457000743E+03   -0.15737E-02   -0.55550E-02  6813   0.630E-01    0.263E-01
RMM:   3    -0.365455179026E+03    0.18217E-02   -0.79233E-03  6899   0.173E-01    0.181E-01
RMM:   4    -0.365454499907E+03    0.67912E-03   -0.23690E-03  7100   0.958E-02    0.894E-02
RMM:   5    -0.365454436578E+03    0.63329E-04   -0.76990E-04  7064   0.536E-02    0.615E-02
RMM:   6    -0.365454457804E+03   -0.21226E-04   -0.30357E-04  6698   0.286E-02    0.408E-02
RMM:   7    -0.365454471148E+03   -0.13343E-04   -0.11635E-04  5513   0.194E-02    0.241E-02
RMM:   8    -0.365454483887E+03   -0.12739E-04   -0.63006E-05  4295   0.146E-02    0.135E-02
RMM:   9    -0.365454492528E+03   -0.86416E-05   -0.31459E-05  3674   0.127E-02
  35 F= -.36545449E+03 E0= -.36546359E+03  d E =-.492627E-02
       N       E                     dE             d eps       ncg     rms          rms(c)
DAV:   1    -0.365456316417E+03   -0.18325E-02   -0.70478E-01  4624   0.249E+00    0.515E-01
RMM:   2    -0.365457460433E+03   -0.11440E-02   -0.39588E-02  6816   0.532E-01    0.220E-01
RMM:   3    -0.365456221704E+03    0.12387E-02   -0.56985E-03  6907   0.147E-01    0.151E-01
RMM:   4    -0.365455764060E+03    0.45764E-03   -0.17270E-03  7094   0.806E-02    0.744E-02
RMM:   5    -0.365455730858E+03    0.33202E-04   -0.57854E-04  7074   0.452E-02    0.519E-02
RMM:   6    -0.365455752096E+03   -0.21238E-04   -0.23098E-04  6428   0.243E-02    0.352E-02
RMM:   7    -0.365455764347E+03   -0.12251E-04   -0.81446E-05  4811   0.172E-02    0.212E-02
RMM:   8    -0.365455777092E+03   -0.12745E-04   -0.58112E-05  4361   0.147E-02    0.115E-02
RMM:   9    -0.365455784196E+03   -0.71036E-05   -0.21895E-05  3373   0.124E-02
  36 F= -.36545578E+03 E0= -.36546481E+03  d E =-.621794E-02
       N       E                     dE             d eps       ncg     rms          rms(c)
DAV:   1    -0.365460415560E+03   -0.46385E-02   -0.58420E-01  4672   0.233E+00    0.551E-01
RMM:   2    -0.365460277272E+03    0.13829E-03   -0.37898E-02  6573   0.525E-01    0.211E-01
RMM:   3    -0.365459315838E+03    0.96143E-03   -0.62452E-03  6929   0.159E-01    0.159E-01
RMM:   4    -0.365458727944E+03    0.58789E-03   -0.17056E-03  7095   0.791E-02    0.864E-02
RMM:   5    -0.365458645666E+03    0.82279E-04   -0.58439E-04  7052   0.461E-02    0.607E-02
RMM:   6    -0.365458632651E+03    0.13015E-04   -0.22878E-04  6565   0.266E-02    0.363E-02
RMM:   7    -0.365458624263E+03    0.83875E-05   -0.86665E-05  5080   0.182E-02
  37 F= -.36545862E+03 E0= -.36546770E+03  d E =-.284007E-02
       N       E                     dE             d eps       ncg     rms          rms(c)
DAV:   1    -0.365460667272E+03   -0.20346E-02   -0.47235E-01  4656   0.210E+00    0.488E-01
RMM:   2    -0.365460533614E+03    0.13366E-03   -0.30192E-02  6519   0.469E-01    0.185E-01
RMM:   3    -0.365459745996E+03    0.78762E-03   -0.48337E-03  6905   0.142E-01    0.137E-01
RMM:   4    -0.365459307570E+03    0.43843E-03   -0.13437E-03  7080   0.696E-02    0.756E-02
RMM:   5    -0.365459253155E+03    0.54415E-04   -0.46808E-04  7076   0.407E-02    0.544E-02
RMM:   6    -0.365459248547E+03    0.46084E-05   -0.18707E-04  6338   0.236E-02    0.340E-02
RMM:   7    -0.365459243605E+03    0.49417E-05   -0.73660E-05  4705   0.168E-02
  38 F= -.36545924E+03 E0= -.36546835E+03  d E =-.345941E-02
       N       E                     dE             d eps       ncg     rms          rms(c)
DAV:   1    -0.365460059384E+03   -0.81084E-03   -0.10960E-01  4688   0.930E-01    0.712E-02
RMM:   2    -0.365460353449E+03   -0.29406E-03   -0.38068E-03  6539   0.177E-01    0.429E-02
RMM:   3    -0.365460321799E+03    0.31650E-04   -0.51182E-04  6528   0.474E-02    0.326E-02
RMM:   4    -0.365460313471E+03    0.83276E-05   -0.13497E-04  5616   0.171E-02    0.206E-02
RMM:   5    -0.365460309357E+03    0.41141E-05   -0.45287E-05  3673   0.118E-02
  39 F= -.36546031E+03 E0= -.36546948E+03  d E =-.106575E-02
       N       E                     dE             d eps       ncg     rms          rms(c)
DAV:   1    -0.365460281812E+03    0.31659E-04   -0.98531E-01  4480   0.279E+00    0.211E-01
RMM:   2    -0.365462865214E+03   -0.25834E-02   -0.33529E-02  6511   0.529E-01    0.120E-01
RMM:   3    -0.365462676839E+03    0.18838E-03   -0.44161E-03  6862   0.139E-01    0.925E-02
RMM:   4    -0.365462603114E+03    0.73725E-04   -0.10241E-03  7594   0.467E-02    0.577E-02
RMM:   5    -0.365462587955E+03    0.15159E-04   -0.41128E-04  6418   0.317E-02    0.311E-02
RMM:   6    -0.365462583424E+03    0.45307E-05   -0.15944E-04  6206   0.229E-02    0.122E-02
RMM:   7    -0.365462583431E+03   -0.74979E-08   -0.37882E-05  3698   0.115E-02
  40 F= -.36546258E+03 E0= -.36547193E+03  d E =-.333983E-02
       N       E                     dE             d eps       ncg     rms          rms(c)
DAV:   1    -0.365453726022E+03    0.88574E-02   -0.39442E+00  4480   0.559E+00    0.426E-01
RMM:   2    -0.365464040904E+03   -0.10315E-01   -0.13431E-01  6487   0.106E+00    0.240E-01
RMM:   3    -0.365463281730E+03    0.75917E-03   -0.17440E-02  6865   0.280E-01    0.185E-01
RMM:   4    -0.365462975302E+03    0.30643E-03   -0.40072E-03  7674   0.924E-02    0.117E-01
RMM:   5    -0.365462916813E+03    0.58488E-04   -0.16396E-03  7233   0.626E-02    0.627E-02
RMM:   6    -0.365462894182E+03    0.22631E-04   -0.61574E-04  6918   0.433E-02    0.242E-02
RMM:   7    -0.365462901172E+03   -0.69899E-05   -0.21042E-04  5223   0.192E-02    0.162E-02
RMM:   8    -0.365462907434E+03   -0.62620E-05   -0.10683E-04  4476   0.165E-02    0.102E-02
RMM:   9    -0.365462909342E+03   -0.19084E-05   -0.40233E-05  3676   0.124E-02
  41 F= -.36546291E+03 E0= -.36547258E+03  d E =-.366574E-02
       N       E                     dE             d eps       ncg     rms          rms(c)
DAV:   1    -0.365461447495E+03    0.14599E-02   -0.91503E-01  4480   0.269E+00    0.201E-01
RMM:   2    -0.365463790683E+03   -0.23432E-02   -0.30767E-02  6288   0.507E-01    0.113E-01
RMM:   3    -0.365463564615E+03    0.22607E-03   -0.37167E-03  6811   0.136E-01    0.883E-02
RMM:   4    -0.365463488927E+03    0.75689E-04   -0.84688E-04  7459   0.433E-02    0.550E-02
RMM:   5    -0.365463468946E+03    0.19981E-04   -0.33336E-04  6418   0.297E-02    0.300E-02
RMM:   6    -0.365463464039E+03    0.49067E-05   -0.12079E-04  6076   0.211E-02    0.115E-02
RMM:   7    -0.365463463346E+03    0.69353E-06   -0.25819E-05  3301   0.105E-02
  42 F= -.36546346E+03 E0= -.36547298E+03  d E =-.421974E-02
       N       E                     dE             d eps       ncg     rms          rms(c)
DAV:   1    -0.365466724352E+03   -0.32603E-02   -0.41959E-01  4704   0.198E+00    0.506E-01
RMM:   2    -0.365466450677E+03    0.27368E-03   -0.27914E-02  6790   0.439E-01    0.205E-01
RMM:   3    -0.365465228948E+03    0.12217E-02   -0.49899E-03  7007   0.132E-01    0.143E-01
RMM:   4    -0.365464761413E+03    0.46753E-03   -0.14213E-03  7038   0.762E-02    0.752E-02
RMM:   5    -0.365464710984E+03    0.50429E-04   -0.43747E-04  7061   0.418E-02    0.539E-02
RMM:   6    -0.365464731685E+03   -0.20700E-04   -0.18028E-04  6363   0.227E-02    0.349E-02
RMM:   7    -0.365464743958E+03   -0.12274E-04   -0.67647E-05  4718   0.166E-02    0.192E-02
RMM:   8    -0.365464753457E+03   -0.94981E-05   -0.40584E-05  3777   0.135E-02
  43 F= -.36546475E+03 E0= -.36547428E+03  d E =-.129011E-02
       N       E                     dE             d eps       ncg     rms          rms(c)
DAV:   1    -0.365465680306E+03   -0.93635E-03   -0.20236E-01  4752   0.138E+00    0.349E-01
RMM:   2    -0.365465552036E+03    0.12827E-03   -0.13431E-02  6769   0.305E-01    0.140E-01
RMM:   3    -0.365464982388E+03    0.56965E-03   -0.23974E-03  7008   0.918E-02    0.971E-02
RMM:   4    -0.365464773711E+03    0.20868E-03   -0.70140E-04  7003   0.526E-02    0.513E-02
RMM:   5    -0.365464757972E+03    0.15739E-04   -0.22207E-04  6891   0.294E-02    0.375E-02
RMM:   6    -0.365464773553E+03   -0.15582E-04   -0.92833E-05  5193   0.162E-02    0.252E-02
RMM:   7    -0.365464783699E+03   -0.10146E-04   -0.34477E-05  3361   0.131E-02    0.137E-02
RMM:   8    -0.365464791190E+03   -0.74907E-05   -0.26686E-05  3201   0.128E-02
  44 F= -.36546479E+03 E0= -.36547431E+03  d E =-.132784E-02
       N       E                     dE             d eps       ncg     rms          rms(c)
DAV:   1    -0.365465064135E+03   -0.28044E-03   -0.36028E-02  4928   0.581E-01    0.150E-01
RMM:   2    -0.365465052875E+03    0.11260E-04   -0.24584E-03  6810   0.130E-01    0.624E-02
RMM:   3    -0.365464944463E+03    0.10841E-03   -0.45340E-04  6838   0.403E-02    0.447E-02
RMM:   4    -0.365464896782E+03    0.47681E-04   -0.12455E-04  6262   0.232E-02    0.238E-02
RMM:   5    -0.365464886420E+03    0.10361E-04   -0.26952E-05  2730   0.146E-02    0.173E-02
RMM:   6    -0.365464883466E+03    0.29547E-05   -0.13040E-05  2482   0.102E-02
  45 F= -.36546488E+03 E0= -.36547440E+03  d E =-.142012E-02
       N       E                     dE             d eps       ncg     rms          rms(c)
DAV:   1    -0.365465507280E+03   -0.62086E-03   -0.13682E-01  4528   0.104E+00    0.108E-01
RMM:   2    -0.365465755980E+03   -0.24870E-03   -0.42189E-03  6827   0.195E-01    0.538E-02
RMM:   3    -0.365465732185E+03    0.23795E-04   -0.52920E-04  6722   0.471E-02    0.365E-02
RMM:   4    -0.365465718575E+03    0.13610E-04   -0.14654E-04  5954   0.197E-02    0.238E-02
RMM:   5    -0.365465712647E+03    0.59280E-05   -0.51654E-05  4097   0.126E-02
  46 F= -.36546571E+03 E0= -.36547525E+03  d E =-.829181E-03
       N       E                     dE             d eps       ncg     rms          rms(c)
DAV:   1    -0.365465076495E+03    0.64208E-03   -0.10683E+00  4480   0.291E+00    0.309E-01
RMM:   2    -0.365467095858E+03   -0.20194E-02   -0.33946E-02  6908   0.548E-01    0.159E-01
RMM:   3    -0.365466975232E+03    0.12063E-03   -0.46934E-03  6895   0.131E-01    0.107E-01
RMM:   4    -0.365466879171E+03    0.96062E-04   -0.12732E-03  7291   0.560E-02    0.708E-02
RMM:   5    -0.365466850374E+03    0.28797E-04   -0.52336E-04  7055   0.386E-02    0.375E-02
RMM:   6    -0.365466834543E+03    0.15831E-04   -0.20876E-04  6456   0.241E-02    0.216E-02
RMM:   7    -0.365466832571E+03    0.19722E-05   -0.48127E-05  4102   0.137E-02
  47 F= -.36546683E+03 E0= -.36547640E+03  d E =-.194911E-02
       N       E                     dE             d eps       ncg     rms          rms(c)
DAV:   1    -0.365466819454E+03    0.15089E-04   -0.15850E-02  4800   0.355E-01    0.369E-02
RMM:   2    -0.365466855473E+03   -0.36019E-04   -0.56466E-04  6803   0.682E-02    0.204E-02
RMM:   3    -0.365466853583E+03    0.18897E-05   -0.85990E-05  4206   0.179E-02
  48 F= -.36546685E+03 E0= -.36547643E+03  d E =-.197012E-02
       N       E                     dE             d eps       ncg     rms          rms(c)
DAV:   1    -0.365467708477E+03   -0.85300E-03   -0.37453E-02  4912   0.637E-01    0.220E-01
RMM:   2    -0.365467497600E+03    0.21088E-03   -0.35332E-03  6890   0.161E-01    0.783E-02
RMM:   3    -0.365467344923E+03    0.15268E-03   -0.81524E-04  6959   0.514E-02    0.598E-02
RMM:   4    -0.365467242496E+03    0.10243E-03   -0.22447E-04  6714   0.325E-02    0.307E-02
RMM:   5    -0.365467229300E+03    0.13196E-04   -0.67590E-05  4737   0.180E-02    0.220E-02
RMM:   6    -0.365467225189E+03    0.41111E-05   -0.22757E-05  2875   0.115E-02
  49 F= -.36546723E+03 E0= -.36547685E+03  d E =-.371606E-03
       N       E                     dE             d eps       ncg     rms          rms(c)
DAV:   1    -0.365467650490E+03   -0.42119E-03   -0.26999E-02  4848   0.544E-01    0.183E-01
RMM:   2    -0.365467504682E+03    0.14581E-03   -0.24670E-03  6900   0.136E-01    0.650E-02
RMM:   3    -0.365467392310E+03    0.11237E-03   -0.56477E-04  6935   0.436E-02    0.494E-02
RMM:   4    -0.365467323046E+03    0.69264E-04   -0.16039E-04  6420   0.275E-02    0.264E-02
RMM:   5    -0.365467313402E+03    0.96442E-05   -0.44103E-05  3488   0.161E-02
  50 F= -.36546731E+03 E0= -.36547699E+03  d E =-.459819E-03
       N       E                     dE             d eps       ncg     rms          rms(c)
DAV:   1    -0.365467641763E+03   -0.31872E-03   -0.31785E-02  4576   0.527E-01    0.939E-02
RMM:   2    -0.365467705175E+03   -0.63412E-04   -0.16985E-03  6954   0.111E-01    0.465E-02
RMM:   3    -0.365467666623E+03    0.38552E-04   -0.25877E-04  6230   0.293E-02    0.323E-02
RMM:   4    -0.365467650335E+03    0.16287E-04   -0.82089E-05  5986   0.180E-02    0.162E-02
RMM:   5    -0.365467646886E+03    0.34492E-05   -0.24838E-05  2975   0.101E-02
  51 F= -.36546765E+03 E0= -.36547736E+03  d E =-.333484E-03
       N       E                     dE             d eps       ncg     rms          rms(c)
DAV:   1    -0.365467945747E+03   -0.29541E-03   -0.28508E-01  4480   0.158E+00    0.260E-01
RMM:   2    -0.365468569658E+03   -0.62391E-03   -0.14695E-02  6938   0.325E-01    0.127E-01
RMM:   3    -0.365468155074E+03    0.41458E-03   -0.19220E-03  6995   0.803E-02    0.853E-02
RMM:   4    -0.365468040642E+03    0.11443E-03   -0.57767E-04  6927   0.449E-02    0.455E-02
RMM:   5    -0.365468027025E+03    0.13616E-04   -0.23543E-04  6779   0.267E-02    0.292E-02
RMM:   6    -0.365468030496E+03   -0.34708E-05   -0.79233E-05  4646   0.153E-02
  52 F= -.36546803E+03 E0= -.36547785E+03  d E =-.717094E-03
       N       E                     dE             d eps       ncg     rms          rms(c)
DAV:   1    -0.365468169983E+03   -0.14296E-03   -0.29644E-02  4640   0.465E-01    0.346E-02
RMM:   2    -0.365468244705E+03   -0.74722E-04   -0.87948E-04  6459   0.821E-02    0.206E-02
RMM:   3    -0.365468238881E+03    0.58236E-05   -0.11804E-04  4796   0.241E-02    0.165E-02
RMM:   4    -0.365468240339E+03   -0.14580E-05   -0.44579E-05  3825   0.117E-02
  53 F= -.36546824E+03 E0= -.36547809E+03  d E =-.209843E-03
       N       E                     dE             d eps       ncg     rms          rms(c)
DAV:   1    -0.365468133606E+03    0.10528E-03   -0.26661E-01  4480   0.139E+00    0.970E-02
RMM:   2    -0.365468779671E+03   -0.64607E-03   -0.76554E-03  6413   0.242E-01    0.578E-02
RMM:   3    -0.365468704089E+03    0.75582E-04   -0.10973E-03  6636   0.686E-02    0.435E-02
RMM:   4    -0.365468693926E+03    0.10164E-04   -0.25282E-04  6309   0.228E-02    0.272E-02
RMM:   5    -0.365468691438E+03    0.24871E-05   -0.85440E-05  4980   0.143E-02
  54 F= -.36546869E+03 E0= -.36547861E+03  d E =-.660942E-03
       N       E                     dE             d eps       ncg     rms          rms(c)
DAV:   1    -0.365466682173E+03    0.20118E-02   -0.10663E+00  4480   0.279E+00    0.194E-01
RMM:   2    -0.365469245565E+03   -0.25634E-02   -0.30331E-02  6359   0.484E-01    0.114E-01
RMM:   3    -0.365468923437E+03    0.32213E-03   -0.42255E-03  6840   0.136E-01    0.854E-02
RMM:   4    -0.365468880430E+03    0.43007E-04   -0.93488E-04  7433   0.438E-02    0.533E-02
RMM:   5    -0.365468871238E+03    0.91926E-05   -0.34120E-04  6363   0.292E-02    0.254E-02
RMM:   6    -0.365468873220E+03   -0.19827E-05   -0.14227E-04  5872   0.191E-02    0.132E-02
RMM:   7    -0.365468870910E+03    0.23108E-05   -0.37364E-05  3527   0.114E-02
  55 F= -.36546887E+03 E0= -.36547893E+03  d E =-.840414E-03
       N       E                     dE             d eps       ncg     rms          rms(c)
DAV:   1    -0.365468608160E+03    0.26506E-03   -0.16954E-01  4480   0.111E+00    0.760E-02
RMM:   2    -0.365468998851E+03   -0.39069E-03   -0.46628E-03  5822   0.192E-01    0.447E-02
RMM:   3    -0.365468932025E+03    0.66826E-04   -0.56431E-04  6468   0.566E-02    0.334E-02
RMM:   4    -0.365468921879E+03    0.10146E-04   -0.11610E-04  5718   0.165E-02    0.205E-02
RMM:   5    -0.365468918039E+03    0.38397E-05   -0.34960E-05  3491   0.112E-02
  56 F= -.36546892E+03 E0= -.36547892E+03  d E =-.887543E-03
       N       E                     dE             d eps       ncg     rms          rms(c)
DAV:   1    -0.365469220859E+03   -0.29898E-03   -0.14166E-01  4480   0.108E+00    0.157E-01
RMM:   2    -0.365469455806E+03   -0.23495E-03   -0.55045E-03  6900   0.209E-01    0.716E-02
RMM:   3    -0.365469385856E+03    0.69949E-04   -0.64496E-04  6917   0.503E-02    0.499E-02
RMM:   4    -0.365469340801E+03    0.45056E-04   -0.19221E-04  6648   0.254E-02    0.281E-02
RMM:   5    -0.365469331895E+03    0.89055E-05   -0.76902E-05  5714   0.157E-02
  57 F= -.36546933E+03 E0= -.36547937E+03  d E =-.413856E-03
       N       E                     dE             d eps       ncg     rms          rms(c)
DAV:   1    -0.365469331430E+03    0.93714E-05   -0.14063E-01  4480   0.107E+00    0.153E-01
RMM:   2    -0.365469567096E+03   -0.23567E-03   -0.55164E-03  6913   0.209E-01    0.721E-02
RMM:   3    -0.365469507173E+03    0.59923E-04   -0.71859E-04  6888   0.508E-02    0.500E-02
RMM:   4    -0.365469467347E+03    0.39825E-04   -0.22425E-04  6685   0.259E-02    0.292E-02
RMM:   5    -0.365469460953E+03    0.63943E-05   -0.96353E-05  5795   0.166E-02
  58 F= -.36546946E+03 E0= -.36547952E+03  d E =-.542913E-03
       N       E                     dE             d eps       ncg     rms          rms(c)
DAV:   1    -0.365469738962E+03   -0.27161E-03   -0.46784E-02  4688   0.637E-01    0.133E-01
RMM:   2    -0.365469791430E+03   -0.52469E-04   -0.26092E-03  6911   0.135E-01    0.610E-02
RMM:   3    -0.365469700231E+03    0.91199E-04   -0.45830E-04  6718   0.379E-02    0.419E-02
RMM:   4    -0.365469668757E+03    0.31474E-04   -0.13114E-04  6379   0.219E-02    0.224E-02
RMM:   5    -0.365469663456E+03    0.53014E-05   -0.41049E-05  3689   0.131E-02
  59 F= -.36546966E+03 E0= -.36547973E+03  d E =-.202503E-03
       N       E                     dE             d eps       ncg     rms          rms(c)
DAV:   1    -0.365469943002E+03   -0.27425E-03   -0.12801E-01  4480   0.106E+00    0.205E-01
RMM:   2    -0.365470102563E+03   -0.15956E-03   -0.67171E-03  6895   0.219E-01    0.936E-02
RMM:   3    -0.365469854448E+03    0.24812E-03   -0.10250E-03  6909   0.584E-02    0.637E-02
RMM:   4    -0.365469784066E+03    0.70382E-04   -0.28003E-04  6879   0.318E-02    0.366E-02
RMM:   5    -0.365469774989E+03    0.90767E-05   -0.10920E-04  6331   0.191E-02    0.246E-02
RMM:   6    -0.365469779459E+03   -0.44697E-05   -0.36462E-05  3453   0.114E-02
  60 F= -.36546978E+03 E0= -.36547986E+03  d E =-.318506E-03
       N       E                     dE             d eps       ncg     rms          rms(c)
DAV:   1    -0.365469861319E+03   -0.86330E-04   -0.17149E-02  4704   0.368E-01    0.289E-02
RMM:   2    -0.365469907151E+03   -0.45831E-04   -0.56674E-04  6569   0.694E-02    0.180E-02
RMM:   3    -0.365469902198E+03    0.49525E-05   -0.71072E-05  4359   0.197E-02
  61 F= -.36546990E+03 E0= -.36547999E+03  d E =-.122739E-03
       N       E                     dE             d eps       ncg     rms          rms(c)
DAV:   1    -0.365469845614E+03    0.61536E-04   -0.15419E-01  4496   0.110E+00    0.832E-02
RMM:   2    -0.365470209345E+03   -0.36373E-03   -0.48916E-03  6672   0.205E-01    0.493E-02
RMM:   3    -0.365470185355E+03    0.23990E-04   -0.69333E-04  6574   0.532E-02    0.380E-02
RMM:   4    -0.365470176042E+03    0.93135E-05   -0.19055E-04  6030   0.217E-02    0.224E-02
RMM:   5    -0.365470174838E+03    0.12040E-05   -0.66583E-05  4257   0.130E-02
  62 F= -.36547017E+03 E0= -.36548030E+03  d E =-.395379E-03
       N       E                     dE             d eps       ncg     rms          rms(c)
DAV:   1    -0.365469057852E+03    0.11182E-02   -0.61557E-01  4480   0.221E+00    0.159E-01
RMM:   2    -0.365470525404E+03   -0.14676E-02   -0.19102E-02  6646   0.408E-01    0.925E-02
RMM:   3    -0.365470429343E+03    0.96061E-04   -0.25985E-03  6845   0.105E-01    0.711E-02
RMM:   4    -0.365470383951E+03    0.45392E-04   -0.61461E-04  7298   0.389E-02    0.422E-02
RMM:   5    -0.365470379833E+03    0.41179E-05   -0.24802E-04  6155   0.251E-02    0.221E-02
RMM:   6    -0.365470379446E+03    0.38654E-06   -0.10160E-04  5141   0.173E-02    0.107E-02
RMM:   7    -0.365470379079E+03    0.36773E-06   -0.23715E-05  3358   0.109E-02
  63 F= -.36547038E+03 E0= -.36548059E+03  d E =-.599620E-03
       N       E                     dE             d eps       ncg     rms          rms(c)
DAV:   1    -0.365471008490E+03   -0.62904E-03   -0.94986E-02  4720   0.948E-01    0.250E-01
RMM:   2    -0.365470864083E+03    0.14441E-03   -0.64321E-03  6789   0.213E-01    0.943E-02
RMM:   3    -0.365470666149E+03    0.19793E-03   -0.12134E-03  7004   0.646E-02    0.695E-02
RMM:   4    -0.365470542323E+03    0.12383E-03   -0.34845E-04  6922   0.375E-02    0.367E-02
RMM:   5    -0.365470523839E+03    0.18484E-04   -0.11554E-04  6249   0.211E-02    0.259E-02
RMM:   6    -0.365470519269E+03    0.45700E-05   -0.39285E-05  3419   0.119E-02
  64 F= -.36547052E+03 E0= -.36548076E+03  d E =-.140190E-03
       N       E                     dE             d eps       ncg     rms          rms(c)
DAV:   1    -0.365470516065E+03    0.77732E-05   -0.29493E-05  3944   0.135E-02    0.930E-03
RMM:   2    -0.365470516306E+03   -0.24041E-06   -0.15092E-05  2583   0.969E-03
  65 F= -.36547052E+03 E0= -.36548075E+03  d E =-.137227E-03
       N       E                     dE             d eps       ncg     rms          rms(c)
DAV:   1    -0.365470633666E+03   -0.11760E-03   -0.39551E-02  4560   0.568E-01    0.797E-02
RMM:   2    -0.365470676601E+03   -0.42935E-04   -0.15363E-03  6922   0.112E-01    0.409E-02
RMM:   3    -0.365470657238E+03    0.19363E-04   -0.24467E-04  6049   0.291E-02    0.304E-02
RMM:   4    -0.365470640369E+03    0.16868E-04   -0.82789E-05  5580   0.181E-02    0.141E-02
RMM:   5    -0.365470638908E+03    0.14613E-05   -0.25878E-05  3052   0.106E-02
  66 F= -.36547064E+03 E0= -.36548089E+03  d E =-.122602E-03
