       N       E                     dE             d eps       ncg     rms          rms(c)
DAV:   1     0.200237014373E+04    0.20024E+04   -0.11516E+05  5608   0.106E+03
DAV:   2    -0.661116162105E+02   -0.20685E+04   -0.19931E+04  5752   0.392E+02
DAV:   3    -0.337776076505E+03   -0.27166E+03   -0.25763E+03  8824   0.100E+02
DAV:   4    -0.370494067737E+03   -0.32718E+02   -0.31142E+02  8584   0.316E+01
DAV:   5    -0.373880723029E+03   -0.33867E+01   -0.33186E+01  8200   0.103E+01    0.655E+01
RMM:   6    -0.363918616777E+03    0.99621E+01   -0.25444E+01  7248   0.984E+00    0.313E+01
RMM:   7    -0.368838282112E+03   -0.49197E+01   -0.34778E+01  7748   0.922E+00    0.142E+01
RMM:   8    -0.359699953288E+03    0.91383E+01   -0.87578E+00  7511   0.414E+00    0.496E+00
RMM:   9    -0.359246758259E+03    0.45320E+00   -0.34766E+00  7737   0.243E+00    0.305E+00
RMM:  10    -0.359229456846E+03    0.17301E-01   -0.79896E-01  7816   0.130E+00    0.184E+00
RMM:  11    -0.359192486277E+03    0.36971E-01   -0.19759E-01  7652   0.677E-01    0.997E-01
RMM:  12    -0.359184964927E+03    0.75214E-02   -0.87125E-02  7829   0.416E-01    0.581E-01
RMM:  13    -0.359181012036E+03    0.39529E-02   -0.25065E-02  7785   0.272E-01    0.292E-01
RMM:  14    -0.359180871172E+03    0.14086E-03   -0.10186E-02  7996   0.125E-01    0.176E-01
RMM:  15    -0.359180877837E+03   -0.66656E-05   -0.51285E-03  8073   0.882E-02    0.843E-02
RMM:  16    -0.359180907482E+03   -0.29644E-04   -0.18785E-03  7750   0.442E-02    0.553E-02
RMM:  17    -0.359180883866E+03    0.23616E-04   -0.75506E-04  6722   0.304E-02    0.274E-02
RMM:  18    -0.359180889927E+03   -0.60614E-05   -0.31068E-04  6039   0.203E-02    0.125E-02
RMM:  19    -0.359180897158E+03   -0.72307E-05   -0.13892E-04  5019   0.144E-02    0.745E-03
RMM:  20    -0.359180897309E+03   -0.15126E-06   -0.49178E-05  4167   0.110E-02
   1 F= -.35918090E+03 E0= -.35918699E+03  d E =-.359181E+03
       N       E                     dE             d eps       ncg     rms          rms(c)
DAV:   1    -0.359256362857E+03   -0.75466E-01   -0.31798E+00  6072   0.567E+00    0.202E+00
RMM:   2    -0.359242514539E+03    0.13848E-01   -0.30160E-01  7255   0.143E+00    0.693E-01
RMM:   3    -0.359234099405E+03    0.84151E-02   -0.64191E-02  7883   0.468E-01    0.539E-01
RMM:   4    -0.359224664988E+03    0.94344E-02   -0.17562E-02  7874   0.267E-01    0.267E-01
RMM:   5    -0.359223793876E+03    0.87111E-03   -0.53337E-03  7823   0.137E-01    0.201E-01
RMM:   6    -0.359223859607E+03   -0.65731E-04   -0.21209E-03  8197   0.754E-02    0.130E-01
RMM:   7    -0.359223837093E+03    0.22513E-04   -0.89249E-04  7847   0.527E-02    0.707E-02
RMM:   8    -0.359223864915E+03   -0.27821E-04   -0.53460E-04  7170   0.331E-02    0.473E-02
RMM:   9    -0.359223892580E+03   -0.27665E-04   -0.19275E-04  5851   0.248E-02    0.360E-02
RMM:  10    -0.359223911869E+03   -0.19290E-04   -0.11360E-04  5539   0.182E-02    0.210E-02
RMM:  11    -0.359223911908E+03   -0.38261E-07   -0.62664E-05  4776   0.154E-02
   2 F= -.35922391E+03 E0= -.35922981E+03  d E =-.430146E-01
       N       E                     dE             d eps       ncg     rms          rms(c)
DAV:   1    -0.359472472237E+03   -0.24856E+00   -0.20370E+01  5832   0.143E+01    0.498E+00
RMM:   2    -0.359380314057E+03    0.92158E-01   -0.18688E+00  7261   0.357E+00    0.175E+00
RMM:   3    -0.359323534854E+03    0.56779E-01   -0.40740E-01  7938   0.116E+00    0.134E+00
RMM:   4    -0.359265888681E+03    0.57646E-01   -0.11045E-01  7869   0.673E-01    0.675E-01
RMM:   5    -0.359259836803E+03    0.60519E-02   -0.34628E-02  7904   0.344E-01    0.502E-01
RMM:   6    -0.359260395312E+03   -0.55851E-03   -0.12911E-02  8324   0.186E-01    0.326E-01
RMM:   7    -0.359260472394E+03   -0.77082E-04   -0.56716E-03  8767   0.131E-01    0.178E-01
RMM:   8    -0.359260737196E+03   -0.26480E-03   -0.34709E-03  8982   0.806E-02    0.119E-01
RMM:   9    -0.359260969072E+03   -0.23188E-03   -0.11814E-03  8174   0.568E-02    0.917E-02
RMM:  10    -0.359261163645E+03   -0.19457E-03   -0.69307E-04  7782   0.386E-02    0.579E-02
RMM:  11    -0.359261220549E+03   -0.56904E-04   -0.35478E-04  6771   0.289E-02    0.295E-02
RMM:  12    -0.359261229152E+03   -0.86038E-05   -0.21743E-04  6541   0.218E-02    0.139E-02
RMM:  13    -0.359261225963E+03    0.31890E-05   -0.71935E-05  5484   0.162E-02
   3 F= -.35926123E+03 E0= -.35926648E+03  d E =-.803287E-01
       N       E                     dE             d eps       ncg     rms          rms(c)
DAV:   1    -0.359289849018E+03   -0.28620E-01   -0.30767E+00  5440   0.476E+00    0.798E-01
RMM:   2    -0.359299058340E+03   -0.92093E-02   -0.16187E-01  7319   0.100E+00    0.409E-01
RMM:   3    -0.359293271747E+03    0.57866E-02   -0.20486E-02  7642   0.284E-01    0.302E-01
RMM:   4    -0.359292153321E+03    0.11184E-02   -0.50737E-03  7848   0.117E-01    0.186E-01
RMM:   5    -0.359291918575E+03    0.23475E-03   -0.18795E-03  7815   0.812E-02    0.120E-01
RMM:   6    -0.359291950176E+03   -0.31601E-04   -0.93019E-04  7897   0.511E-02    0.786E-02
RMM:   7    -0.359291920562E+03    0.29614E-04   -0.35263E-04  7323   0.314E-02    0.454E-02
RMM:   8    -0.359291940508E+03   -0.19945E-04   -0.16016E-04  6428   0.187E-02    0.262E-02
RMM:   9    -0.359291951841E+03   -0.11334E-04   -0.64898E-05  5148   0.145E-02    0.136E-02
RMM:  10    -0.359291957834E+03   -0.59930E-05   -0.21247E-05  3815   0.114E-02
   4 F= -.35929196E+03 E0= -.35929673E+03  d E =-.307319E-01
       N       E                     dE             d eps       ncg     rms          rms(c)
DAV:   1    -0.359318713184E+03   -0.26761E-01   -0.19829E+01  5264   0.121E+01    0.206E+00
RMM:   2    -0.359380057765E+03   -0.61345E-01   -0.10495E+00  7348   0.259E+00    0.105E+00
RMM:   3    -0.359339614850E+03    0.40443E-01   -0.12932E-01  7694   0.723E-01    0.747E-01
RMM:   4    -0.359332833273E+03    0.67816E-02   -0.33719E-02  7871   0.300E-01    0.456E-01
RMM:   5    -0.359331279913E+03    0.15534E-02   -0.11783E-02  7797   0.204E-01    0.295E-01
RMM:   6    -0.359331524981E+03   -0.24507E-03   -0.58034E-03  7931   0.127E-01    0.198E-01
RMM:   7    -0.359331324313E+03    0.20067E-03   -0.22121E-03  8323   0.783E-02    0.115E-01
RMM:   8    -0.359331433379E+03   -0.10907E-03   -0.11168E-03  8038   0.450E-02    0.687E-02
RMM:   9    -0.359331471033E+03   -0.37654E-04   -0.38539E-04  7163   0.319E-02    0.378E-02
RMM:  10    -0.359331500610E+03   -0.29577E-04   -0.14946E-04  6060   0.196E-02    0.237E-02
RMM:  11    -0.359331512501E+03   -0.11890E-04   -0.82488E-05  5156   0.151E-02    0.142E-02
RMM:  12    -0.359331515421E+03   -0.29200E-05   -0.27429E-05  4178   0.121E-02
   5 F= -.35933152E+03 E0= -.35933499E+03  d E =-.702895E-01
       N       E                     dE             d eps       ncg     rms          rms(c)
DAV:   1    -0.359332082884E+03   -0.57038E-03   -0.81190E-01  5488   0.246E+00    0.413E-01
RMM:   2    -0.359334532533E+03   -0.24496E-02   -0.42529E-02  7283   0.514E-01    0.208E-01
RMM:   3    -0.359333008947E+03    0.15236E-02   -0.53967E-03  7579   0.148E-01    0.152E-01
RMM:   4    -0.359332729920E+03    0.27903E-03   -0.13634E-03  7781   0.599E-02    0.934E-02
RMM:   5    -0.359332674440E+03    0.55480E-04   -0.50681E-04  7793   0.417E-02    0.596E-02
RMM:   6    -0.359332692150E+03   -0.17709E-04   -0.24757E-04  7237   0.262E-02    0.393E-02
RMM:   7    -0.359332689699E+03    0.24510E-05   -0.93447E-05  5919   0.165E-02
   6 F= -.35933269E+03 E0= -.35933589E+03  d E =-.714637E-01
       N       E                     dE             d eps       ncg     rms          rms(c)
DAV:   1    -0.359347314622E+03   -0.14622E-01   -0.68263E-01  5832   0.255E+00    0.779E-01
RMM:   2    -0.359345575893E+03    0.17387E-02   -0.55747E-02  7250   0.608E-01    0.292E-01
RMM:   3    -0.359343225539E+03    0.23504E-02   -0.10787E-02  7826   0.197E-01    0.214E-01
RMM:   4    -0.359341977650E+03    0.12479E-02   -0.32883E-03  7868   0.110E-01    0.110E-01
RMM:   5    -0.359341840884E+03    0.13677E-03   -0.92335E-04  7738   0.616E-02    0.832E-02
RMM:   6    -0.359341890316E+03   -0.49432E-04   -0.41657E-04  7473   0.325E-02    0.593E-02
RMM:   7    -0.359341917711E+03   -0.27395E-04   -0.15234E-04  6397   0.242E-02    0.332E-02
RMM:   8    -0.359341945287E+03   -0.27575E-04   -0.11191E-04  5898   0.172E-02    0.206E-02
RMM:   9    -0.359341962593E+03   -0.17306E-04   -0.43079E-05  4334   0.142E-02    0.147E-02
RMM:  10    -0.359341976680E+03   -0.14087E-04   -0.26141E-05  3914   0.123E-02    0.708E-03
RMM:  11    -0.359341982361E+03   -0.56815E-05   -0.15414E-05  3644   0.112E-02
   7 F= -.35934198E+03 E0= -.35934520E+03  d E =-.929266E-02
       N       E                     dE             d eps       ncg     rms          rms(c)
DAV:   1    -0.359381466550E+03   -0.39490E-01   -0.38313E+00  5600   0.604E+00    0.188E+00
RMM:   2    -0.359371725441E+03    0.97411E-02   -0.31559E-01  7265   0.144E+00    0.699E-01
RMM:   3    -0.359358806854E+03    0.12919E-01   -0.62143E-02  7843   0.469E-01    0.515E-01
RMM:   4    -0.359351454906E+03    0.73519E-02   -0.18905E-02  7898   0.263E-01    0.263E-01
RMM:   5    -0.359350624195E+03    0.83071E-03   -0.53854E-03  7813   0.145E-01    0.197E-01
RMM:   6    -0.359350819905E+03   -0.19571E-03   -0.22947E-03  8264   0.764E-02    0.139E-01
RMM:   7    -0.359350899401E+03   -0.79496E-04   -0.91444E-04  8135   0.548E-02    0.770E-02
RMM:   8    -0.359350998262E+03   -0.98861E-04   -0.58345E-04  7299   0.338E-02    0.488E-02
RMM:   9    -0.359351067961E+03   -0.69698E-04   -0.23463E-04  6224   0.261E-02    0.337E-02
RMM:  10    -0.359351117996E+03   -0.50035E-04   -0.13203E-04  5877   0.186E-02    0.210E-02
RMM:  11    -0.359351138687E+03   -0.20692E-04   -0.55383E-05  4766   0.150E-02    0.105E-02
RMM:  12    -0.359351147908E+03   -0.92211E-05   -0.28269E-05  4225   0.129E-02
   8 F= -.35935115E+03 E0= -.35935436E+03  d E =-.184582E-01
       N       E                     dE             d eps       ncg     rms          rms(c)
DAV:   1    -0.359360901305E+03   -0.97626E-02   -0.73523E-01  5696   0.255E+00    0.654E-01
RMM:   2    -0.359360329217E+03    0.57209E-03   -0.46085E-02  6985   0.562E-01    0.257E-01
RMM:   3    -0.359359280280E+03    0.10489E-02   -0.88782E-03  7837   0.188E-01    0.192E-01
RMM:   4    -0.359358290178E+03    0.99010E-03   -0.25636E-03  7877   0.936E-02    0.102E-01
RMM:   5    -0.359358187842E+03    0.10234E-03   -0.83935E-04  7733   0.549E-02    0.747E-02
RMM:   6    -0.359358183844E+03    0.39980E-05   -0.35716E-04  7279   0.301E-02    0.475E-02
RMM:   7    -0.359358168573E+03    0.15271E-04   -0.13124E-04  6371   0.214E-02    0.264E-02
RMM:   8    -0.359358164121E+03    0.44516E-05   -0.73017E-05  5155   0.141E-02
   9 F= -.35935816E+03 E0= -.35936137E+03  d E =-.701621E-02
       N       E                     dE             d eps       ncg     rms          rms(c)
DAV:   1    -0.359372571882E+03   -0.14403E-01   -0.26632E+00  5600   0.486E+00    0.123E+00
RMM:   2    -0.359370443498E+03    0.21284E-02   -0.16512E-01  6888   0.107E+00    0.482E-01
RMM:   3    -0.359366533377E+03    0.39101E-02   -0.31122E-02  7838   0.357E-01    0.357E-01
RMM:   4    -0.359363088172E+03    0.34452E-02   -0.90222E-03  7892   0.176E-01    0.190E-01
RMM:   5    -0.359362767025E+03    0.32115E-03   -0.29333E-03  7775   0.102E-01    0.141E-01
RMM:   6    -0.359362803116E+03   -0.36091E-04   -0.12597E-03  8117   0.558E-02    0.927E-02
RMM:   7    -0.359362789198E+03    0.13918E-04   -0.48351E-04  7176   0.386E-02    0.526E-02
RMM:   8    -0.359362798788E+03   -0.95898E-05   -0.28321E-04  6778   0.246E-02    0.327E-02
RMM:   9    -0.359362803655E+03   -0.48675E-05   -0.10468E-04  5152   0.189E-02    0.234E-02
RMM:  10    -0.359362805779E+03   -0.21233E-05   -0.71718E-05  4904   0.149E-02
  10 F= -.35936281E+03 E0= -.35936595E+03  d E =-.116579E-01
       N       E                     dE             d eps       ncg     rms          rms(c)
DAV:   1    -0.359365019191E+03   -0.22155E-02   -0.45201E-01  5440   0.193E+00    0.136E-01
RMM:   2    -0.359366630700E+03   -0.16115E-02   -0.16945E-02  6276   0.360E-01    0.904E-02
RMM:   3    -0.359366296404E+03    0.33430E-03   -0.18597E-03  7529   0.111E-01    0.655E-02
RMM:   4    -0.359366283774E+03    0.12631E-04   -0.40422E-04  7834   0.270E-02    0.440E-02
RMM:   5    -0.359366281821E+03    0.19527E-05   -0.14212E-04  6546   0.213E-02    0.267E-02
RMM:   6    -0.359366277609E+03    0.42123E-05   -0.57708E-05  5049   0.159E-02
  11 F= -.35936628E+03 E0= -.35936935E+03  d E =-.347183E-02
       N       E                     dE             d eps       ncg     rms          rms(c)
DAV:   1    -0.359363132195E+03    0.31496E-02   -0.40650E+00  5264   0.579E+00    0.409E-01
RMM:   2    -0.359377769675E+03   -0.14637E-01   -0.15253E-01  6127   0.108E+00    0.274E-01
RMM:   3    -0.359374573072E+03    0.31966E-02   -0.16565E-02  7618   0.337E-01    0.190E-01
RMM:   4    -0.359374477960E+03    0.95111E-04   -0.35870E-03  9063   0.803E-02    0.126E-01
RMM:   5    -0.359374476016E+03    0.19444E-05   -0.13079E-03  8138   0.628E-02    0.796E-02
RMM:   6    -0.359374447036E+03    0.28980E-04   -0.53630E-04  8047   0.424E-02    0.351E-02
RMM:   7    -0.359374434082E+03    0.12954E-04   -0.21148E-04  6872   0.200E-02    0.200E-02
RMM:   8    -0.359374435758E+03   -0.16758E-05   -0.66120E-05  4503   0.145E-02
  12 F= -.35937444E+03 E0= -.35937725E+03  d E =-.116300E-01
       N       E                     dE             d eps       ncg     rms          rms(c)
DAV:   1    -0.359334954944E+03    0.39479E-01   -0.16267E+01  5152   0.116E+01    0.839E-01
RMM:   2    -0.359394045446E+03   -0.59091E-01   -0.61502E-01  6129   0.219E+00    0.554E-01
RMM:   3    -0.359380901417E+03    0.13144E-01   -0.66514E-02  7603   0.676E-01    0.381E-01
RMM:   4    -0.359380471955E+03    0.42946E-03   -0.14441E-02  9109   0.163E-01    0.252E-01
RMM:   5    -0.359380444540E+03    0.27415E-04   -0.50909E-03  8422   0.125E-01    0.165E-01
RMM:   6    -0.359380333906E+03    0.11063E-03   -0.21577E-03  8539   0.846E-02    0.746E-02
RMM:   7    -0.359380266108E+03    0.67797E-04   -0.88724E-04  8840   0.414E-02    0.400E-02
RMM:   8    -0.359380275956E+03   -0.98474E-05   -0.31987E-04  7502   0.246E-02    0.253E-02
RMM:   9    -0.359380286270E+03   -0.10314E-04   -0.12520E-04  5891   0.180E-02    0.122E-02
RMM:  10    -0.359380289862E+03   -0.35924E-05   -0.52360E-05  4153   0.122E-02
  13 F= -.35938029E+03 E0= -.35938254E+03  d E =-.174841E-01
       N       E                     dE             d eps       ncg     rms          rms(c)
DAV:   1    -0.359384031393E+03   -0.37451E-02   -0.24447E+00  5312   0.465E+00    0.790E-01
RMM:   2    -0.359388848484E+03   -0.48171E-02   -0.12314E-01  6905   0.937E-01    0.320E-01
RMM:   3    -0.359386551368E+03    0.22971E-02   -0.15247E-02  7587   0.287E-01    0.250E-01
RMM:   4    -0.359385129506E+03    0.14219E-02   -0.43384E-03  7788   0.118E-01    0.134E-01
RMM:   5    -0.359384958082E+03    0.17142E-03   -0.15673E-03  7883   0.720E-02    0.935E-02
RMM:   6    -0.359384928976E+03    0.29106E-04   -0.63498E-04  8138   0.414E-02    0.601E-02
RMM:   7    -0.359384910339E+03    0.18637E-04   -0.27611E-04  7009   0.268E-02    0.352E-02
RMM:   8    -0.359384905657E+03    0.46817E-05   -0.12622E-04  6172   0.182E-02    0.209E-02
RMM:   9    -0.359384905992E+03   -0.33557E-06   -0.58450E-05  4569   0.144E-02
  14 F= -.35938491E+03 E0= -.35938694E+03  d E =-.461613E-02
       N       E                     dE             d eps       ncg     rms          rms(c)
DAV:   1    -0.359385226789E+03   -0.32113E-03   -0.10111E+00  5440   0.299E+00    0.504E-01
RMM:   2    -0.359387235929E+03   -0.20091E-02   -0.50587E-02  6882   0.600E-01    0.203E-01
RMM:   3    -0.359386277927E+03    0.95800E-03   -0.61725E-03  7587   0.183E-01    0.157E-01
RMM:   4    -0.359385714192E+03    0.56373E-03   -0.17887E-03  7778   0.751E-02    0.837E-02
RMM:   5    -0.359385651097E+03    0.63095E-04   -0.65159E-04  7867   0.462E-02    0.589E-02
RMM:   6    -0.359385640626E+03    0.10472E-04   -0.26341E-04  7360   0.265E-02    0.388E-02
RMM:   7    -0.359385631410E+03    0.92159E-05   -0.10973E-04  5982   0.179E-02    0.234E-02
RMM:   8    -0.359385628002E+03    0.34079E-05   -0.57583E-05  4554   0.142E-02
  15 F= -.35938563E+03 E0= -.35938751E+03  d E =-.533814E-02
       N       E                     dE             d eps       ncg     rms          rms(c)
DAV:   1    -0.359390567247E+03   -0.49358E-02   -0.11823E+00  5424   0.326E+00    0.688E-01
RMM:   2    -0.359391230813E+03   -0.66357E-03   -0.67686E-02  6777   0.685E-01    0.272E-01
RMM:   3    -0.359389658550E+03    0.15723E-02   -0.98666E-03  7733   0.220E-01    0.203E-01
RMM:   4    -0.359388671889E+03    0.98666E-03   -0.30383E-03  7914   0.993E-02    0.108E-01
RMM:   5    -0.359388566227E+03    0.10566E-03   -0.99995E-04  7796   0.593E-02    0.783E-02
RMM:   6    -0.359388590170E+03   -0.23943E-04   -0.40974E-04  7515   0.336E-02    0.511E-02
RMM:   7    -0.359388597269E+03   -0.70996E-05   -0.15760E-04  6534   0.231E-02    0.285E-02
RMM:   8    -0.359388613076E+03   -0.15807E-04   -0.82803E-05  5408   0.153E-02    0.166E-02
RMM:   9    -0.359388623932E+03   -0.10856E-04   -0.34605E-05  4133   0.129E-02    0.118E-02
RMM:  10    -0.359388632825E+03   -0.88936E-05   -0.21523E-05  3843   0.117E-02
  16 F= -.35938863E+03 E0= -.35939037E+03  d E =-.300482E-02
       N       E                     dE             d eps       ncg     rms          rms(c)
DAV:   1    -0.359389818725E+03   -0.11948E-02   -0.43019E-01  5584   0.196E+00    0.410E-01
RMM:   2    -0.359390063742E+03   -0.24502E-03   -0.24232E-02  6680   0.412E-01    0.159E-01
RMM:   3    -0.359389502493E+03    0.56125E-03   -0.34237E-03  7673   0.133E-01    0.118E-01
RMM:   4    -0.359389169099E+03    0.33339E-03   -0.10784E-03  7883   0.590E-02    0.626E-02
RMM:   5    -0.359389142790E+03    0.26309E-04   -0.35365E-04  7705   0.349E-02    0.461E-02
RMM:   6    -0.359389159718E+03   -0.16928E-04   -0.14125E-04  6806   0.199E-02    0.310E-02
RMM:   7    -0.359389168654E+03   -0.89367E-05   -0.52266E-05  4695   0.141E-02
  17 F= -.35938917E+03 E0= -.35939081E+03  d E =-.354065E-02
       N       E                     dE             d eps       ncg     rms          rms(c)
DAV:   1    -0.359389191123E+03   -0.31406E-04   -0.16104E-02  5584   0.379E-01    0.758E-02
RMM:   2    -0.359389199925E+03   -0.88018E-05   -0.90349E-04  6681   0.795E-02    0.292E-02
RMM:   3    -0.359389182257E+03    0.17668E-04   -0.12160E-04  6167   0.256E-02    0.219E-02
RMM:   4    -0.359389175665E+03    0.65917E-05   -0.36780E-05  3952   0.142E-02
  18 F= -.35938918E+03 E0= -.35939080E+03  d E =-.354766E-02
       N       E                     dE             d eps       ncg     rms          rms(c)
DAV:   1    -0.359390062808E+03   -0.88055E-03   -0.35363E-01  5360   0.167E+00    0.123E-01
RMM:   2    -0.359391156830E+03   -0.10940E-02   -0.11093E-02  6766   0.301E-01    0.828E-02
RMM:   3    -0.359390895073E+03    0.26176E-03   -0.13796E-03  7544   0.905E-02    0.572E-02
RMM:   4    -0.359390884667E+03    0.10406E-04   -0.29038E-04  7483   0.239E-02    0.374E-02
RMM:   5    -0.359390884611E+03    0.55727E-07   -0.10184E-04  6255   0.155E-02    0.219E-02
RMM:   6    -0.359390882366E+03    0.22449E-05   -0.39826E-05  4458   0.123E-02
  19 F= -.35939088E+03 E0= -.35939245E+03  d E =-.170670E-02
       N       E                     dE             d eps       ncg     rms          rms(c)
DAV:   1    -0.359386737186E+03    0.41474E-02   -0.31818E+00  5264   0.502E+00    0.371E-01
RMM:   2    -0.359396617459E+03   -0.98803E-02   -0.99712E-02  6635   0.904E-01    0.245E-01
RMM:   3    -0.359394203693E+03    0.24138E-02   -0.12247E-02  7651   0.274E-01    0.169E-01
RMM:   4    -0.359394097158E+03    0.10653E-03   -0.24712E-03  8830   0.690E-02    0.111E-01
RMM:   5    -0.359394089350E+03    0.78087E-05   -0.88640E-04  8089   0.483E-02    0.675E-02
RMM:   6    -0.359394061677E+03    0.27673E-04   -0.39364E-04  7767   0.353E-02    0.323E-02
RMM:   7    -0.359394042051E+03    0.19626E-04   -0.15077E-04  6555   0.180E-02    0.165E-02
RMM:   8    -0.359394041658E+03    0.39293E-06   -0.43314E-05  4095   0.132E-02
  20 F= -.35939404E+03 E0= -.35939544E+03  d E =-.486599E-02
       N       E                     dE             d eps       ncg     rms          rms(c)
DAV:   1    -0.359361960322E+03    0.32082E-01   -0.12732E+01  5152   0.100E+01    0.761E-01
RMM:   2    -0.359401884126E+03   -0.39924E-01   -0.40148E-01  6588   0.182E+00    0.494E-01
RMM:   3    -0.359392382748E+03    0.95014E-02   -0.50069E-02  7637   0.555E-01    0.348E-01
RMM:   4    -0.359391913490E+03    0.46926E-03   -0.98853E-03  8877   0.141E-01    0.230E-01
RMM:   5    -0.359391893047E+03    0.20443E-04   -0.34724E-03  8373   0.976E-02    0.143E-01
RMM:   6    -0.359391759748E+03    0.13330E-03   -0.15971E-03  8308   0.732E-02    0.667E-02
RMM:   7    -0.359391687318E+03    0.72430E-04   -0.65742E-04  8426   0.369E-02    0.341E-02
RMM:   8    -0.359391690835E+03   -0.35167E-05   -0.20589E-04  6564   0.205E-02    0.213E-02
RMM:   9    -0.359391692762E+03   -0.19270E-05   -0.10898E-04  5788   0.169E-02    0.101E-02
RMM:  10    -0.359391692638E+03    0.12384E-06   -0.36226E-05  4188   0.125E-02
  21 F= -.35939169E+03 E0= -.35939277E+03  d E =-.251697E-02
       N       E                     dE             d eps       ncg     rms          rms(c)
DAV:   1    -0.359379241178E+03    0.12452E-01   -0.68794E+00  5152   0.738E+00    0.528E-01
RMM:   2    -0.359400492299E+03   -0.21251E-01   -0.21530E-01  6463   0.132E+00    0.361E-01
RMM:   3    -0.359394854642E+03    0.56377E-02   -0.25267E-02  7607   0.410E-01    0.234E-01
RMM:   4    -0.359394630915E+03    0.22373E-03   -0.51675E-03  8778   0.101E-01    0.151E-01
RMM:   5    -0.359394593009E+03    0.37906E-04   -0.17750E-03  8318   0.707E-02    0.897E-02
RMM:   6    -0.359394573116E+03    0.19893E-04   -0.79355E-04  8413   0.481E-02    0.471E-02
RMM:   7    -0.359394538874E+03    0.34242E-04   -0.29979E-04  7638   0.261E-02    0.227E-02
RMM:   8    -0.359394543455E+03   -0.45810E-05   -0.87672E-05  5020   0.156E-02
  22 F= -.35939454E+03 E0= -.35939585E+03  d E =-.536779E-02
       N       E                     dE             d eps       ncg     rms          rms(c)
DAV:   1    -0.359394779098E+03   -0.24022E-03   -0.45955E-01  5168   0.191E+00    0.142E-01
RMM:   2    -0.359396032297E+03   -0.12532E-02   -0.14636E-02  6615   0.347E-01    0.712E-02
RMM:   3    -0.359395920095E+03    0.11220E-03   -0.16705E-03  7527   0.102E-01    0.577E-02
RMM:   4    -0.359395903832E+03    0.16263E-04   -0.37466E-04  8032   0.268E-02    0.380E-02
RMM:   5    -0.359395898001E+03    0.58311E-05   -0.12790E-04  6482   0.179E-02    0.234E-02
RMM:   6    -0.359395893398E+03    0.46025E-05   -0.47741E-05  4915   0.152E-02
  23 F= -.35939589E+03 E0= -.35939726E+03  d E =-.134994E-02
       N       E                     dE             d eps       ncg     rms          rms(c)
DAV:   1    -0.359394287782E+03    0.16102E-02   -0.92046E-01  5152   0.270E+00    0.202E-01
RMM:   2    -0.359396853821E+03   -0.25660E-02   -0.29858E-02  6773   0.493E-01    0.103E-01
RMM:   3    -0.359396653172E+03    0.20065E-03   -0.36288E-03  7569   0.144E-01    0.831E-02
RMM:   4    -0.359396627412E+03    0.25760E-04   -0.82135E-04  8532   0.388E-02    0.555E-02
RMM:   5    -0.359396618810E+03    0.86028E-05   -0.28773E-04  7539   0.266E-02    0.345E-02
RMM:   6    -0.359396611565E+03    0.72450E-05   -0.11429E-04  6907   0.205E-02    0.139E-02
RMM:   7    -0.359396609209E+03    0.23561E-05   -0.32506E-05  3704   0.113E-02
  24 F= -.35939661E+03 E0= -.35939806E+03  d E =-.206575E-02
       N       E                     dE             d eps       ncg     rms          rms(c)
DAV:   1    -0.359396481574E+03    0.12999E-03   -0.33233E-01  5344   0.166E+00    0.138E-01
RMM:   2    -0.359397435818E+03   -0.95424E-03   -0.11341E-02  6856   0.306E-01    0.726E-02
RMM:   3    -0.359397322140E+03    0.11368E-03   -0.13412E-03  7613   0.903E-02    0.612E-02
RMM:   4    -0.359397289211E+03    0.32929E-04   -0.26478E-04  8033   0.252E-02    0.396E-02
RMM:   5    -0.359397289913E+03   -0.70284E-06   -0.10497E-04  6539   0.176E-02    0.241E-02
RMM:   6    -0.359397287684E+03    0.22292E-05   -0.40030E-05  4226   0.138E-02
  25 F= -.35939729E+03 E0= -.35939881E+03  d E =-.678476E-03
       N       E                     dE             d eps       ncg     rms          rms(c)
DAV:   1    -0.359393337630E+03    0.39523E-02   -0.18868E+00  5264   0.396E+00    0.323E-01
RMM:   2    -0.359398723323E+03   -0.53857E-02   -0.63932E-02  6699   0.729E-01    0.169E-01
RMM:   3    -0.359398059819E+03    0.66350E-03   -0.74539E-03  7710   0.216E-01    0.144E-01
RMM:   4    -0.359397881694E+03    0.17813E-03   -0.14557E-03  8820   0.583E-02    0.931E-02
RMM:   5    -0.359397885512E+03   -0.38186E-05   -0.59059E-04  8245   0.426E-02    0.584E-02
RMM:   6    -0.359397872454E+03    0.13058E-04   -0.27026E-04  8015   0.313E-02    0.282E-02
RMM:   7    -0.359397872344E+03    0.11011E-06   -0.96012E-05  5637   0.157E-02
  26 F= -.35939787E+03 E0= -.35939953E+03  d E =-.126314E-02
       N       E                     dE             d eps       ncg     rms          rms(c)
DAV:   1    -0.359398568909E+03   -0.69646E-03   -0.16382E-01  5600   0.123E+00    0.280E-01
RMM:   2    -0.359398646166E+03   -0.77256E-04   -0.10058E-02  6773   0.267E-01    0.110E-01
RMM:   3    -0.359398412120E+03    0.23405E-03   -0.16242E-03  7759   0.884E-02    0.829E-02
RMM:   4    -0.359398230924E+03    0.18120E-03   -0.47522E-04  7796   0.404E-02    0.430E-02
RMM:   5    -0.359398209216E+03    0.21708E-04   -0.15217E-04  6914   0.236E-02    0.314E-02
RMM:   6    -0.359398201872E+03    0.73443E-05   -0.55111E-05  4740   0.132E-02
  27 F= -.35939820E+03 E0= -.35939989E+03  d E =-.329528E-03
       N       E                     dE             d eps       ncg     rms          rms(c)
DAV:   1    -0.359398407733E+03   -0.19852E-03   -0.79834E-02  5600   0.862E-01    0.187E-01
RMM:   2    -0.359398447363E+03   -0.39630E-04   -0.47925E-03  6567   0.185E-01    0.731E-02
RMM:   3    -0.359398318394E+03    0.12897E-03   -0.71385E-04  7709   0.606E-02    0.540E-02
RMM:   4    -0.359398243442E+03    0.74953E-04   -0.22125E-04  7513   0.273E-02    0.301E-02
RMM:   5    -0.359398231959E+03    0.11482E-04   -0.68033E-05  5817   0.171E-02    0.226E-02
RMM:   6    -0.359398227792E+03    0.41677E-05   -0.26214E-05  3529   0.107E-02
  28 F= -.35939823E+03 E0= -.35939993E+03  d E =-.355448E-03
       N       E                     dE             d eps       ncg     rms          rms(c)
DAV:   1    -0.359398310652E+03   -0.78693E-04   -0.48880E-02  5312   0.640E-01    0.571E-02
RMM:   2    -0.359398430089E+03   -0.11944E-03   -0.17742E-03  7521   0.124E-01    0.326E-02
RMM:   3    -0.359398422469E+03    0.76194E-05   -0.19559E-04  6045   0.333E-02    0.252E-02
RMM:   4    -0.359398417846E+03    0.46228E-05   -0.74211E-05  5435   0.155E-02
  29 F= -.35939842E+03 E0= -.35940011E+03  d E =-.190055E-03
       N       E                     dE             d eps       ncg     rms          rms(c)
DAV:   1    -0.359397725289E+03    0.69718E-03   -0.43926E-01  5152   0.192E+00    0.164E-01
RMM:   2    -0.359398813498E+03   -0.10882E-02   -0.15611E-02  7394   0.367E-01    0.905E-02
RMM:   3    -0.359398773972E+03    0.39526E-04   -0.19195E-03  7580   0.961E-02    0.697E-02
RMM:   4    -0.359398714652E+03    0.59320E-04   -0.44370E-04  8269   0.346E-02    0.428E-02
RMM:   5    -0.359398713171E+03    0.14814E-05   -0.20036E-04  7041   0.247E-02    0.244E-02
RMM:   6    -0.359398709237E+03    0.39344E-05   -0.76265E-05  5504   0.154E-02
  30 F= -.35939871E+03 E0= -.35940039E+03  d E =-.481445E-03
       N       E                     dE             d eps       ncg     rms          rms(c)
DAV:   1    -0.359398678461E+03    0.34710E-04   -0.13962E-02  5456   0.344E-01    0.295E-02
RMM:   2    -0.359398717588E+03   -0.39127E-04   -0.54499E-04  7430   0.668E-02    0.184E-02
RMM:   3    -0.359398715347E+03    0.22405E-05   -0.62876E-05  4532   0.188E-02
  31 F= -.35939872E+03 E0= -.35940039E+03  d E =-.487555E-03
       N       E                     dE             d eps       ncg     rms          rms(c)
DAV:   1    -0.359398991811E+03   -0.27422E-03   -0.26773E-02  5848   0.517E-01    0.155E-01
RMM:   2    -0.359398886880E+03    0.10493E-03   -0.20547E-03  7457   0.120E-01    0.559E-02
RMM:   3    -0.359398820454E+03    0.66426E-04   -0.43673E-04  7764   0.389E-02    0.426E-02
RMM:   4    -0.359398772096E+03    0.48358E-04   -0.13150E-04  6912   0.232E-02    0.223E-02
RMM:   5    -0.359398769023E+03    0.30737E-05   -0.33761E-05  3756   0.138E-02
  32 F= -.35939877E+03 E0= -.35940046E+03  d E =-.536756E-04
