       N       E                     dE             d eps       ncg     rms          rms(c)
DAV:   1     0.214707464428E+04    0.21471E+04   -0.12104E+05  5808   0.108E+03
DAV:   2    -0.656401676768E+02   -0.22127E+04   -0.21449E+04  6016   0.411E+02
DAV:   3    -0.338515256371E+03   -0.27288E+03   -0.26005E+03  8968   0.984E+01
DAV:   4    -0.370829877612E+03   -0.32315E+02   -0.30694E+02  8840   0.314E+01
DAV:   5    -0.374180920928E+03   -0.33510E+01   -0.32767E+01  8544   0.100E+01    0.621E+01
RMM:   6    -0.363565931199E+03    0.10615E+02   -0.22914E+01  7136   0.105E+01    0.291E+01
RMM:   7    -0.361885554292E+03    0.16804E+01   -0.20696E+01  7122   0.815E+00    0.757E+00
RMM:   8    -0.359902066162E+03    0.19835E+01   -0.38188E+00  8029   0.313E+00    0.432E+00
RMM:   9    -0.359736927340E+03    0.16514E+00   -0.13954E+00  7889   0.158E+00    0.301E+00
RMM:  10    -0.359674388356E+03    0.62539E-01   -0.39400E-01  7805   0.128E+00    0.117E+00
RMM:  11    -0.359650386898E+03    0.24001E-01   -0.11138E-01  7877   0.541E-01    0.568E-01
RMM:  12    -0.359649023344E+03    0.13636E-02   -0.36486E-02  7935   0.263E-01    0.351E-01
RMM:  13    -0.359649052706E+03   -0.29361E-04   -0.14461E-02  8186   0.136E-01    0.218E-01
RMM:  14    -0.359649323480E+03   -0.27077E-03   -0.63209E-03  8138   0.864E-02    0.119E-01
RMM:  15    -0.359649423749E+03   -0.10027E-03   -0.27919E-03  7915   0.582E-02    0.450E-02
RMM:  16    -0.359649505514E+03   -0.81765E-04   -0.13455E-03  6751   0.347E-02    0.272E-02
RMM:  17    -0.359649530786E+03   -0.25272E-04   -0.57411E-04  6024   0.235E-02    0.133E-02
RMM:  18    -0.359649549783E+03   -0.18997E-04   -0.27435E-04  5637   0.162E-02    0.882E-03
RMM:  19    -0.359649558332E+03   -0.85491E-05   -0.13259E-04  4760   0.128E-02    0.453E-03
RMM:  20    -0.359649561116E+03   -0.27841E-05   -0.57074E-05  4315   0.103E-02
   1 F= -.35964956E+03 E0= -.35965260E+03  d E =-.359650E+03
       N       E                     dE             d eps       ncg     rms          rms(c)
DAV:   1    -0.359650682401E+03   -0.11241E-02   -0.48183E-02  5772   0.582E-01    0.548E-02
RMM:   2    -0.359650792209E+03   -0.10981E-03   -0.17638E-03  7321   0.119E-01    0.289E-02
RMM:   3    -0.359650790599E+03    0.16094E-05   -0.25422E-04  6922   0.341E-02    0.209E-02
RMM:   4    -0.359650788596E+03    0.20031E-05   -0.85320E-05  5316   0.133E-02
   2 F= -.35965079E+03 E0= -.35965384E+03  d E =-.122748E-02
       N       E                     dE             d eps       ncg     rms          rms(c)
DAV:   1    -0.359652903851E+03   -0.21133E-02   -0.43255E-01  5600   0.174E+00    0.165E-01
RMM:   2    -0.359653809161E+03   -0.90531E-03   -0.14990E-02  7376   0.353E-01    0.882E-02
RMM:   3    -0.359653821209E+03   -0.12048E-04   -0.23855E-03  7758   0.946E-02    0.647E-02
RMM:   4    -0.359653784746E+03    0.36463E-04   -0.62769E-04  8049   0.361E-02    0.370E-02
RMM:   5    -0.359653782682E+03    0.20643E-05   -0.23455E-04  6591   0.242E-02    0.186E-02
RMM:   6    -0.359653783005E+03   -0.32289E-06   -0.92850E-05  5059   0.150E-02
   3 F= -.35965378E+03 E0= -.35965686E+03  d E =-.422189E-02
       N       E                     dE             d eps       ncg     rms          rms(c)
DAV:   1    -0.359653363474E+03    0.41921E-03   -0.17323E+00  5392   0.349E+00    0.328E-01
RMM:   2    -0.359656927496E+03   -0.35640E-02   -0.59448E-02  7348   0.705E-01    0.174E-01
RMM:   3    -0.359656917572E+03    0.99241E-05   -0.92444E-03  7792   0.188E-01    0.125E-01
RMM:   4    -0.359656797637E+03    0.11993E-03   -0.24258E-03  8371   0.719E-02    0.717E-02
RMM:   5    -0.359656796380E+03    0.12566E-05   -0.93757E-04  7881   0.457E-02    0.380E-02
RMM:   6    -0.359656794347E+03    0.20338E-05   -0.35895E-04  6743   0.263E-02    0.195E-02
RMM:   7    -0.359656797320E+03   -0.29729E-05   -0.11561E-04  5191   0.167E-02    0.121E-02
RMM:   8    -0.359656802762E+03   -0.54422E-05   -0.77628E-05  4907   0.128E-02
   4 F= -.35965680E+03 E0= -.35965991E+03  d E =-.724165E-02
       N       E                     dE             d eps       ncg     rms          rms(c)
DAV:   1    -0.359656740356E+03    0.56963E-04   -0.87857E-02  5600   0.787E-01    0.736E-02
RMM:   2    -0.359656932753E+03   -0.19240E-03   -0.31142E-03  7480   0.160E-01    0.395E-02
RMM:   3    -0.359656936069E+03   -0.33155E-05   -0.49841E-04  6998   0.432E-02    0.282E-02
RMM:   4    -0.359656936397E+03   -0.32865E-06   -0.18555E-04  6325   0.190E-02    0.159E-02
RMM:   5    -0.359656936206E+03    0.19158E-06   -0.48072E-05  4467   0.115E-02
   5 F= -.35965694E+03 E0= -.35966005E+03  d E =-.737509E-02
       N       E                     dE             d eps       ncg     rms          rms(c)
DAV:   1    -0.359657884869E+03   -0.94847E-03   -0.23114E-01  5408   0.133E+00    0.133E-01
RMM:   2    -0.359658318558E+03   -0.43369E-03   -0.86239E-03  7227   0.273E-01    0.691E-02
RMM:   3    -0.359658299564E+03    0.18994E-04   -0.12453E-03  7673   0.739E-02    0.465E-02
RMM:   4    -0.359658282121E+03    0.17443E-04   -0.36997E-04  7497   0.297E-02    0.265E-02
RMM:   5    -0.359658280152E+03    0.19696E-05   -0.12059E-04  5903   0.180E-02    0.145E-02
RMM:   6    -0.359658280849E+03   -0.69688E-06   -0.53619E-05  4380   0.119E-02
   6 F= -.35965828E+03 E0= -.35966141E+03  d E =-.134464E-02
       N       E                     dE             d eps       ncg     rms          rms(c)
DAV:   1    -0.359656659051E+03    0.16211E-02   -0.18972E+00  5296   0.382E+00    0.379E-01
RMM:   2    -0.359660281063E+03   -0.36220E-02   -0.70841E-02  7333   0.781E-01    0.197E-01
RMM:   3    -0.359660161515E+03    0.11955E-03   -0.10414E-02  7784   0.210E-01    0.132E-01
RMM:   4    -0.359660016478E+03    0.14504E-03   -0.29413E-03  8140   0.843E-02    0.754E-02
RMM:   5    -0.359660012789E+03    0.36882E-05   -0.11092E-03  7870   0.512E-02    0.419E-02
RMM:   6    -0.359660012365E+03    0.42461E-06   -0.42728E-04  7341   0.294E-02    0.219E-02
RMM:   7    -0.359660017630E+03   -0.52651E-05   -0.13325E-04  5244   0.172E-02    0.135E-02
RMM:   8    -0.359660024588E+03   -0.69585E-05   -0.81597E-05  4785   0.138E-02
   7 F= -.35966002E+03 E0= -.35966317E+03  d E =-.308838E-02
       N       E                     dE             d eps       ncg     rms          rms(c)
DAV:   1    -0.359662910052E+03   -0.28924E-02   -0.41622E-01  5824   0.200E+00    0.511E-01
RMM:   2    -0.359662107226E+03    0.80283E-03   -0.31492E-02  7414   0.476E-01    0.190E-01
RMM:   3    -0.359661146153E+03    0.96107E-03   -0.52152E-03  7983   0.147E-01    0.138E-01
RMM:   4    -0.359660710037E+03    0.43612E-03   -0.15253E-03  8022   0.736E-02    0.778E-02
RMM:   5    -0.359660617886E+03    0.92151E-04   -0.54669E-04  7933   0.459E-02    0.561E-02
RMM:   6    -0.359660615484E+03    0.24026E-05   -0.23378E-04  7228   0.255E-02    0.365E-02
RMM:   7    -0.359660604490E+03    0.10994E-04   -0.92351E-05  6063   0.176E-02    0.189E-02
RMM:   8    -0.359660602059E+03    0.24305E-05   -0.45740E-05  4099   0.130E-02
   8 F= -.35966060E+03 E0= -.35966375E+03  d E =-.577471E-03
       N       E                     dE             d eps       ncg     rms          rms(c)
DAV:   1    -0.359660603526E+03    0.96401E-06   -0.17849E-03  5904   0.132E-01    0.309E-02
RMM:   2    -0.359660602310E+03    0.12159E-05   -0.14241E-04  6645   0.311E-02    0.119E-02
RMM:   3    -0.359660596326E+03    0.59841E-05   -0.16122E-05  3278   0.105E-02
   9 F= -.35966060E+03 E0= -.35966374E+03  d E =-.571737E-03
       N       E                     dE             d eps       ncg     rms          rms(c)
DAV:   1    -0.359660943596E+03   -0.34129E-03   -0.14467E-01  5368   0.111E+00    0.168E-01
RMM:   2    -0.359661174450E+03   -0.23085E-03   -0.70974E-03  7671   0.232E-01    0.758E-02
RMM:   3    -0.359661103417E+03    0.71033E-04   -0.87273E-04  7750   0.620E-02    0.518E-02
RMM:   4    -0.359661064497E+03    0.38921E-04   -0.26073E-04  7474   0.276E-02    0.297E-02
RMM:   5    -0.359661057537E+03    0.69594E-05   -0.99500E-05  6425   0.166E-02
  10 F= -.35966106E+03 E0= -.35966420E+03  d E =-.461212E-03
       N       E                     dE             d eps       ncg     rms          rms(c)
DAV:   1    -0.359660885856E+03    0.17864E-03   -0.47969E-01  5288   0.202E+00    0.300E-01
RMM:   2    -0.359661638798E+03   -0.75294E-03   -0.23429E-02  7639   0.422E-01    0.133E-01
RMM:   3    -0.359661381478E+03    0.25732E-03   -0.28448E-03  7735   0.113E-01    0.912E-02
RMM:   4    -0.359661265043E+03    0.11644E-03   -0.84893E-04  7843   0.504E-02    0.524E-02
RMM:   5    -0.359661254676E+03    0.10367E-04   -0.33824E-04  7796   0.301E-02    0.377E-02
RMM:   6    -0.359661260521E+03   -0.58448E-05   -0.13746E-04  6194   0.184E-02    0.232E-02
RMM:   7    -0.359661267165E+03   -0.66438E-05   -0.59772E-05  4626   0.139E-02
  11 F= -.35966127E+03 E0= -.35966443E+03  d E =-.670839E-03
       N       E                     dE             d eps       ncg     rms          rms(c)
DAV:   1    -0.359661298562E+03   -0.38041E-04   -0.18929E-02  5552   0.402E-01    0.632E-02
RMM:   2    -0.359661339076E+03   -0.40515E-04   -0.95345E-04  7302   0.864E-02    0.280E-02
RMM:   3    -0.359661325121E+03    0.13956E-04   -0.10854E-04  6367   0.263E-02    0.212E-02
RMM:   4    -0.359661317007E+03    0.81134E-05   -0.22717E-05  3071   0.130E-02
  12 F= -.35966132E+03 E0= -.35966448E+03  d E =-.720682E-03
       N       E                     dE             d eps       ncg     rms          rms(c)
DAV:   1    -0.359661372121E+03   -0.47000E-04   -0.52582E-02  5352   0.635E-01    0.512E-02
RMM:   2    -0.359661487701E+03   -0.11558E-03   -0.16915E-03  6971   0.125E-01    0.267E-02
RMM:   3    -0.359661482076E+03    0.56250E-05   -0.19417E-04  6629   0.344E-02    0.209E-02
RMM:   4    -0.359661478613E+03    0.34634E-05   -0.63974E-05  4830   0.132E-02
  13 F= -.35966148E+03 E0= -.35966465E+03  d E =-.161605E-03
       N       E                     dE             d eps       ncg     rms          rms(c)
DAV:   1    -0.359661287103E+03    0.19497E-03   -0.15957E-01  5304   0.110E+00    0.899E-02
RMM:   2    -0.359661662145E+03   -0.37504E-03   -0.52835E-03  7224   0.219E-01    0.508E-02
RMM:   3    -0.359661663744E+03   -0.15991E-05   -0.76218E-04  7518   0.585E-02    0.403E-02
RMM:   4    -0.359661650708E+03    0.13036E-04   -0.22395E-04  6954   0.220E-02    0.237E-02
RMM:   5    -0.359661649168E+03    0.15406E-05   -0.80838E-05  5752   0.142E-02
  14 F= -.35966165E+03 E0= -.35966485E+03  d E =-.332161E-03
       N       E                     dE             d eps       ncg     rms          rms(c)
DAV:   1    -0.359660124932E+03    0.15258E-02   -0.63910E-01  5272   0.221E+00    0.179E-01
RMM:   2    -0.359661613286E+03   -0.14884E-02   -0.21005E-02  7191   0.437E-01    0.985E-02
RMM:   3    -0.359661617333E+03   -0.40473E-05   -0.29854E-03  7769   0.117E-01    0.764E-02
RMM:   4    -0.359661568755E+03    0.48578E-04   -0.73160E-04  8428   0.400E-02    0.476E-02
RMM:   5    -0.359661565420E+03    0.33350E-05   -0.30983E-04  7600   0.299E-02    0.270E-02
RMM:   6    -0.359661555147E+03    0.10273E-04   -0.11700E-04  6464   0.186E-02    0.125E-02
RMM:   7    -0.359661554463E+03    0.68372E-06   -0.25255E-05  4008   0.116E-02
  15 F= -.35966155E+03 E0= -.35966479E+03  d E =-.237456E-03
       N       E                     dE             d eps       ncg     rms          rms(c)
DAV:   1    -0.359661001922E+03    0.55323E-03   -0.33281E-01  5272   0.160E+00    0.129E-01
RMM:   2    -0.359661735354E+03   -0.73343E-03   -0.10606E-02  6920   0.314E-01    0.679E-02
RMM:   3    -0.359661714744E+03    0.20609E-04   -0.13424E-03  7727   0.837E-02    0.537E-02
RMM:   4    -0.359661680488E+03    0.34256E-04   -0.30867E-04  7604   0.274E-02    0.323E-02
RMM:   5    -0.359661676924E+03    0.35641E-05   -0.13079E-04  6580   0.186E-02    0.184E-02
RMM:   6    -0.359661672826E+03    0.40985E-05   -0.43367E-05  4711   0.131E-02
  16 F= -.35966167E+03 E0= -.35966488E+03  d E =-.355818E-03
       N       E                     dE             d eps       ncg     rms          rms(c)
DAV:   1    -0.359661940323E+03   -0.26340E-03   -0.45366E-02  5576   0.648E-01    0.146E-01
RMM:   2    -0.359661902474E+03    0.37848E-04   -0.31394E-03  6603   0.151E-01    0.568E-02
RMM:   3    -0.359661817033E+03    0.85441E-04   -0.41657E-04  7672   0.474E-02    0.381E-02
RMM:   4    -0.359661789333E+03    0.27700E-04   -0.11640E-04  6648   0.205E-02    0.220E-02
RMM:   5    -0.359661784699E+03    0.46345E-05   -0.31230E-05  3609   0.136E-02
  17 F= -.35966178E+03 E0= -.35966499E+03  d E =-.111873E-03
       N       E                     dE             d eps       ncg     rms          rms(c)
DAV:   1    -0.359661850780E+03   -0.61447E-04   -0.18604E-02  5488   0.417E-01    0.892E-02
RMM:   2    -0.359661842686E+03    0.80945E-05   -0.13022E-03  7122   0.966E-02    0.354E-02
RMM:   3    -0.359661809108E+03    0.33578E-04   -0.17658E-04  6771   0.295E-02    0.258E-02
RMM:   4    -0.359661800592E+03    0.85159E-05   -0.48065E-05  4300   0.156E-02
  18 F= -.35966180E+03 E0= -.35966502E+03  d E =-.127766E-03
