<?xml version="1.0" encoding="ISO-8859-1"?>
<modeling>
 <generator>
  <i name="program" type="string">vasp </i>
  <i name="version" type="string">5.4.1  </i>
  <i name="subversion" type="string">05Feb16 (build Jan 29 2020 16:04:39) complex                          parallel </i>
  <i name="platform" type="string">IFC91_ompi </i>
  <i name="date" type="string">2020 06 15 </i>
  <i name="time" type="string">06:05:28 </i>
 </generator>
 <incar>
  <i type="string" name="SYSTEM"> automatically generated by mexm</i>
  <i type="int" name="ISTART">     0</i>
  <i type="string" name="PREC">accurate               ! avoid wrap aro</i>
  <i type="string" name="ALGO"> Fast                   ! blocked Davids</i>
  <i type="int" name="ISPIN">     1</i>
  <i type="int" name="ICHARG">     2</i>
  <i type="int" name="NELM">    70</i>
  <i type="int" name="IBRION">     2</i>
  <i name="EDIFF">      0.00001000</i>
  <i name="EDIFFG">     -0.01000000</i>
  <i type="int" name="NSW">   300</i>
  <i type="int" name="ISIF">     3</i>
  <i type="int" name="ISYM">     1</i>
  <i name="ENCUT">    300.00000000</i>
  <i name="POTIM">      0.15000000</i>
  <i type="string" name="LREAL"> Auto                  ! unpublished met</i>
  <i type="int" name="ISMEAR">     1</i>
  <i name="SIGMA">      0.15000000</i>
  <i type="logical" name="LWAVE"> F  </i>
  <i type="logical" name="LCHARG"> F  </i>
  <i type="logical" name="LVTOT"> F  </i>
  <v type="int" name="KPOINT_BSE">    -1     0     0     0</v>
  <i type="int" name="NELM">    70</i>
 </incar>
 <kpoints>
  <generation param="Gamma">
   <v type="int" name="divisions">       3        3        3 </v>
   <v name="usershift">      0.00000000       0.00000000       0.00000000 </v>
   <v name="genvec1">      0.33333333       0.00000000       0.00000000 </v>
   <v name="genvec2">     -0.00000000       0.33333333       0.00000000 </v>
   <v name="genvec3">      0.00000000       0.00000000       0.33333333 </v>
   <v name="shift">      0.00000000       0.00000000       0.00000000 </v>
  </generation>
  <varray name="kpointlist" >
   <v>       0.00000000       0.00000000       0.00000000 </v>
   <v>       0.33333333      -0.00000000      -0.00000000 </v>
   <v>      -0.00000000       0.33333333       0.00000000 </v>
   <v>       0.33333333       0.33333333       0.00000000 </v>
   <v>      -0.33333333       0.33333333       0.00000000 </v>
   <v>      -0.00000000       0.00000000       0.33333333 </v>
   <v>       0.33333333       0.00000000       0.33333333 </v>
   <v>      -0.33333333       0.00000000       0.33333333 </v>
   <v>      -0.00000000       0.33333333       0.33333333 </v>
   <v>       0.33333333       0.33333333       0.33333333 </v>
   <v>      -0.33333333       0.33333333       0.33333333 </v>
   <v>       0.00000000      -0.33333333       0.33333333 </v>
   <v>       0.33333333      -0.33333333       0.33333333 </v>
   <v>      -0.33333333      -0.33333333       0.33333333 </v>
  </varray>
  <varray name="weights" >
   <v>       0.03703704 </v>
   <v>       0.07407407 </v>
   <v>       0.07407407 </v>
   <v>       0.07407407 </v>
   <v>       0.07407407 </v>
   <v>       0.07407407 </v>
   <v>       0.07407407 </v>
   <v>       0.07407407 </v>
   <v>       0.07407407 </v>
   <v>       0.07407407 </v>
   <v>       0.07407407 </v>
   <v>       0.07407407 </v>
   <v>       0.07407407 </v>
   <v>       0.07407407 </v>
  </varray>
 </kpoints>
 <parameters>
  <separator name="general" >
   <i type="string" name="SYSTEM">automatically generated by mexm</i>
   <i type="logical" name="LCOMPAT"> F  </i>
  </separator>
  <separator name="electronic" >
   <i type="string" name="PREC">accura</i>
   <i name="ENMAX">    300.00000000</i>
   <i name="ENAUG">    461.25700000</i>
   <i name="EDIFF">      0.00001000</i>
   <i type="int" name="IALGO">    68</i>
   <i type="int" name="IWAVPR">    11</i>
   <i type="int" name="NBANDS">   168</i>
   <i name="NELECT">    276.00000000</i>
   <i type="int" name="TURBO">     0</i>
   <i type="int" name="IRESTART">     0</i>
   <i type="int" name="NREBOOT">     0</i>
   <i type="int" name="NMIN">     0</i>
   <i name="EREF">      0.00000000</i>
   <separator name="electronic smearing" >
    <i type="int" name="ISMEAR">     1</i>
    <i name="SIGMA">      0.15000000</i>
    <i name="KSPACING">      0.50000000</i>
    <i type="logical" name="KGAMMA"> T  </i>
   </separator>
   <separator name="electronic projectors" >
    <i type="logical" name="LREAL"> T  </i>
    <v name="ROPT">     -0.00025000     -0.00025000     -0.00025000     -0.00025000</v>
    <i type="int" name="LMAXPAW">  -100</i>
    <i type="int" name="LMAXMIX">     2</i>
    <i type="logical" name="NLSPLINE"> F  </i>
   </separator>
   <separator name="electronic startup" >
    <i type="int" name="ISTART">     0</i>
    <i type="int" name="ICHARG">     2</i>
    <i type="int" name="INIWAV">     1</i>
   </separator>
   <separator name="electronic spin" >
    <i type="int" name="ISPIN">     1</i>
    <i type="logical" name="LNONCOLLINEAR"> F  </i>
    <v name="MAGMOM">      1.00000000      1.00000000      1.00000000      1.00000000      1.00000000      1.00000000      1.00000000      1.00000000      1.00000000      1.00000000      1.00000000      1.00000000      1.00000000      1.00000000      1.00000000      1.00000000      1.00000000      1.00000000      1.00000000      1.00000000
      1.00000000      1.00000000      1.00000000      1.00000000      1.00000000      1.00000000      1.00000000      1.00000000      1.00000000      1.00000000      1.00000000      1.00000000      1.00000000      1.00000000      1.00000000      1.00000000</v>
    <i name="NUPDOWN">     -1.00000000</i>
    <i type="logical" name="LSORBIT"> F  </i>
    <v name="SAXIS">      0.00000000      0.00000000      1.00000000</v>
    <i type="logical" name="LSPIRAL"> F  </i>
    <v name="QSPIRAL">      0.00000000      0.00000000      0.00000000</v>
    <i type="logical" name="LZEROZ"> F  </i>
   </separator>
   <separator name="electronic exchange-correlation" >
    <i type="logical" name="LASPH"> F  </i>
    <i type="logical" name="LMETAGGA"> F  </i>
   </separator>
   <separator name="electronic convergence" >
    <i type="int" name="NELM">    70</i>
    <i type="int" name="NELMDL">    -5</i>
    <i type="int" name="NELMIN">     2</i>
    <i name="ENINI">    300.00000000</i>
    <separator name="electronic convergence detail" >
     <i type="logical" name="LDIAG"> T  </i>
     <i type="logical" name="LSUBROT"> F  </i>
     <i name="WEIMIN">      0.00100000</i>
     <i name="EBREAK">      0.00000001</i>
     <i name="DEPER">      0.30000000</i>
     <i type="int" name="NRMM">     4</i>
     <i name="TIME">      0.40000000</i>
    </separator>
   </separator>
   <separator name="electronic mixer" >
    <i name="AMIX">      0.40000000</i>
    <i name="BMIX">      1.00000000</i>
    <i name="AMIN">      0.10000000</i>
    <i name="AMIX_MAG">      1.60000000</i>
    <i name="BMIX_MAG">      1.00000000</i>
    <separator name="electronic mixer details" >
     <i type="int" name="IMIX">     4</i>
     <i type="logical" name="MIXFIRST"> F  </i>
     <i type="int" name="MAXMIX">   -45</i>
     <i name="WC">    100.00000000</i>
     <i type="int" name="INIMIX">     1</i>
     <i type="int" name="MIXPRE">     1</i>
     <i type="int" name="MREMOVE">     5</i>
    </separator>
   </separator>
   <separator name="electronic dipolcorrection" >
    <i type="logical" name="LDIPOL"> F  </i>
    <i type="logical" name="LMONO"> F  </i>
    <i type="int" name="IDIPOL">     0</i>
    <i name="EPSILON">      1.00000000</i>
    <v name="DIPOL">   -100.00000000   -100.00000000   -100.00000000</v>
    <i name="EFIELD">      0.00000000</i>
   </separator>
  </separator>
  <separator name="grids" >
   <i type="int" name="NGX">    40</i>
   <i type="int" name="NGY">    60</i>
   <i type="int" name="NGZ">    60</i>
   <i type="int" name="NGXF">    80</i>
   <i type="int" name="NGYF">   120</i>
   <i type="int" name="NGZF">   120</i>
   <i type="logical" name="ADDGRID"> F  </i>
  </separator>
  <separator name="ionic" >
   <i type="int" name="NSW">   300</i>
   <i type="int" name="IBRION">     2</i>
   <i type="int" name="ISIF">     3</i>
   <i name="PSTRESS">      0.00000000</i>
   <i name="EDIFFG">     -0.01000000</i>
   <i type="int" name="NFREE">     1</i>
   <i name="POTIM">      0.15000000</i>
   <i name="SMASS">     -3.00000000</i>
   <i name="SCALEE">      1.00000000</i>
  </separator>
  <separator name="ionic md" >
   <i name="TEBEG">      0.00010000</i>
   <i name="TEEND">      0.00010000</i>
   <i type="int" name="NBLOCK">     1</i>
   <i type="int" name="KBLOCK">   300</i>
   <i type="int" name="NPACO">   256</i>
   <i name="APACO">     16.00000000</i>
  </separator>
  <separator name="symmetry" >
   <i type="int" name="ISYM">     1</i>
   <i name="SYMPREC">      0.00001000</i>
  </separator>
  <separator name="dos" >
   <i type="logical" name="LORBIT"> F  </i>
   <v name="RWIGS">     -1.00000000     -1.00000000     -1.00000000     -1.00000000</v>
   <i type="int" name="NEDOS">   301</i>
   <i name="EMIN">     10.00000000</i>
   <i name="EMAX">    -10.00000000</i>
   <i name="EFERMI">      0.00000000</i>
  </separator>
  <separator name="writing" >
   <i type="int" name="NWRITE">     2</i>
   <i type="logical" name="LWAVE"> F  </i>
   <i type="logical" name="LCHARG"> F  </i>
   <i type="logical" name="LPARD"> F  </i>
   <i type="logical" name="LVTOT"> F  </i>
   <i type="logical" name="LVHAR"> F  </i>
   <i type="logical" name="LELF"> F  </i>
   <i type="logical" name="LOPTICS"> F  </i>
   <v name="STM">      0.00000000      0.00000000      0.00000000      0.00000000      0.00000000      0.00000000      0.00000000</v>
  </separator>
  <separator name="performance" >
   <i type="int" name="NPAR">     4</i>
   <i type="int" name="NSIM">     4</i>
   <i type="int" name="NBLK">    -1</i>
   <i type="logical" name="LPLANE"> T  </i>
   <i type="logical" name="LSCALAPACK"> T  </i>
   <i type="logical" name="LSCAAWARE"> F  </i>
   <i type="logical" name="LSCALU"> F  </i>
   <i type="logical" name="LASYNC"> F  </i>
   <i type="logical" name="LORBITALREAL"> F  </i>
  </separator>
  <separator name="miscellaneous" >
   <i type="int" name="IDIOT">     3</i>
   <i type="logical" name="LMUSIC"> F  </i>
   <v name="POMASS">    178.49000000     91.22400000    180.94800000     92.91000000</v>
   <v name="DARWINR">      0.00000000      0.00000000      0.00000000      0.00000000</v>
   <v name="DARWINV">      1.00000000      1.00000000      1.00000000      1.00000000</v>
   <i type="logical" name="LCORR"> T  </i>
  </separator>
  <i type="logical" name="GGA_COMPAT"> T  </i>
  <i type="logical" name="LBERRY"> F  </i>
  <i type="int" name="ICORELEVEL">     0</i>
  <i type="logical" name="LDAU"> F  </i>
  <i type="int" name="I_CONSTRAINED_M">     0</i>
  <separator name="electronic exchange-correlation" >
   <i type="string" name="GGA">--</i>
   <i type="int" name="VOSKOWN">     0</i>
   <i type="logical" name="LHFCALC"> F  </i>
   <i type="string" name="PRECFOCK"></i>
   <i type="logical" name="LSYMGRAD"> F  </i>
   <i type="logical" name="LHFONE"> F  </i>
   <i type="logical" name="LRHFCALC"> F  </i>
   <i type="logical" name="LTHOMAS"> F  </i>
   <i type="logical" name="LMODELHF"> F  </i>
   <i name="ENCUT4O">     -1.00000000</i>
   <i type="int" name="EXXOEP">     0</i>
   <i type="int" name="FOURORBIT">     0</i>
   <i name="AEXX">      0.00000000</i>
   <i name="HFALPHA">      0.00000000</i>
   <i name="MCALPHA">      0.00000000</i>
   <i name="ALDAX">      1.00000000</i>
   <i name="AGGAX">      1.00000000</i>
   <i name="ALDAC">      1.00000000</i>
   <i name="AGGAC">      1.00000000</i>
   <i type="int" name="NKREDX">     1</i>
   <i type="int" name="NKREDY">     1</i>
   <i type="int" name="NKREDZ">     1</i>
   <i type="logical" name="SHIFTRED"> F  </i>
   <i type="logical" name="ODDONLY"> F  </i>
   <i type="logical" name="EVENONLY"> F  </i>
   <i type="int" name="LMAXFOCK">     0</i>
   <i type="int" name="NMAXFOCKAE">     0</i>
   <i type="logical" name="LFOCKAEDFT"> F  </i>
   <i name="HFSCREEN">      0.00000000</i>
   <i name="HFSCREENC">      0.00000000</i>
   <i type="int" name="NBANDSGWLOW">     0</i>
  </separator>
  <separator name="vdW DFT" >
   <i type="logical" name="LUSE_VDW"> F  </i>
   <i name="Zab_VDW">     -0.84910000</i>
   <i name="PARAM1">      0.12340000</i>
   <i name="PARAM2">      1.00000000</i>
   <i name="PARAM3">      0.00000000</i>
  </separator>
  <separator name="model GW" >
   <i type="int" name="MODEL_GW">     0</i>
   <i name="MODEL_EPS0">     11.95580806</i>
   <i name="MODEL_ALPHA">      1.00000000</i>
  </separator>
  <separator name="linear response parameters" >
   <i type="logical" name="LEPSILON"> F  </i>
   <i type="logical" name="LRPA"> F  </i>
   <i type="logical" name="LNABLA"> F  </i>
   <i type="logical" name="LVEL"> F  </i>
   <i type="int" name="KINTER">     0</i>
   <i name="CSHIFT">      0.10000000</i>
   <i name="OMEGAMAX">     -1.00000000</i>
   <i name="DEG_THRESHOLD">      0.00200000</i>
  </separator>
  <separator name="orbital magnetization" >
   <i type="logical" name="NUCIND"> F  </i>
   <v name="MAGPOS">      0.00000000      0.00000000      0.00000000</v>
   <i type="logical" name="LNICSALL"> T  </i>
   <i type="logical" name="ORBITALMAG"> F  </i>
   <i type="logical" name="LMAGBLOCH"> F  </i>
   <i type="logical" name="LCHIMAG"> F  </i>
   <i type="logical" name="LGAUGE"> T  </i>
   <i type="int" name="MAGATOM">     0</i>
   <v name="MAGDIPOL">      0.00000000      0.00000000      0.00000000</v>
   <v name="AVECCONST">      0.00000000      0.00000000      0.00000000</v>
  </separator>
  <separator name="response functions" >
   <i type="logical" name="LADDER"> F  </i>
   <i type="logical" name="LFXC"> F  </i>
   <i type="logical" name="LHARTREE"> T  </i>
   <i type="int" name="IBSE">     0</i>
   <v type="int" name="KPOINT">    -1     0     0     0</v>
   <i type="logical" name="LTCTE"> F  </i>
   <i type="logical" name="LTETE"> F  </i>
   <i type="logical" name="LTRIPLET"> F  </i>
   <i type="logical" name="LFXCEPS"> F  </i>
   <i type="logical" name="LFXHEG"> F  </i>
   <i type="int" name="NATURALO">     0</i>
   <i type="logical" name="L2ORDER"> F  </i>
   <i type="logical" name="LUSEW"> F  </i>
   <i name="ENCUTGW">     -2.00000000</i>
   <i name="ENCUTGWSOFT">     -2.00000000</i>
   <i name="ENCUTLF">     -1.00000000</i>
   <i type="int" name="LMAXMP2">    -1</i>
   <i name="SCISSOR">      0.00000000</i>
   <i type="int" name="NOMEGA">     0</i>
   <i type="int" name="NOMEGAR">     0</i>
   <i type="int" name="NBANDSGW">    -1</i>
   <i type="int" name="NBANDSO">    -1</i>
   <i type="int" name="NBANDSV">    -1</i>
   <i type="int" name="NELM">    70</i>
   <i type="int" name="NELMHF">     1</i>
   <i type="int" name="DIM">     3</i>
   <i type="int" name="ANTIRES">     0</i>
   <i name="OMEGAMAX">    -30.00000000</i>
   <i name="OMEGAMIN">    -30.00000000</i>
   <i name="OMEGATL">   -200.00000000</i>
   <i type="int" name="OMEGAGRID">     0</i>
   <i name="CSHIFT">     -0.10000000</i>
   <i type="logical" name="SELFENERGY"> F  </i>
   <i type="logical" name="LSPECTRAL"> F  </i>
   <i type="logical" name="LSPECTRALGW"> F  </i>
   <i type="logical" name="LSINGLES"> F  </i>
   <i type="logical" name="LFERMIGW"> F  </i>
   <i type="logical" name="ODDONLYGW"> F  </i>
   <i type="logical" name="EVENONLYGW"> F  </i>
   <i type="int" name="NKREDLFX">     1</i>
   <i type="int" name="NKREDLFY">     1</i>
   <i type="int" name="NKREDLFZ">     1</i>
   <i type="int" name="MAXMEM">  1800</i>
   <i type="int" name="TELESCOPE">     0</i>
   <i type="int" name="TAUPAR">     1</i>
   <i type="int" name="OMEGAPAR">    -1</i>
   <i name="LAMBDA">      1.00000000</i>
  </separator>
  <separator name="External order field" >
   <i name="OFIELD_KAPPA">      0.00000000</i>
   <v name="OFIELD_K">      0.00000000      0.00000000      0.00000000</v>
   <i name="OFIELD_Q6_NEAR">      0.00000000</i>
   <i name="OFIELD_Q6_FAR">      0.00000000</i>
   <i name="OFIELD_A">      0.00000000</i>
  </separator>
 </parameters>
 <atominfo>
  <atoms>      36 </atoms>
  <types>       4 </types>
  <array name="atoms" >
   <dimension dim="1">ion</dimension>
   <field type="string">element</field>
   <field type="int">atomtype</field>
   <set>
    <rc><c>Hf</c><c>   1</c></rc>
    <rc><c>Hf</c><c>   1</c></rc>
    <rc><c>Hf</c><c>   1</c></rc>
    <rc><c>Hf</c><c>   1</c></rc>
    <rc><c>Hf</c><c>   1</c></rc>
    <rc><c>Hf</c><c>   1</c></rc>
    <rc><c>Hf</c><c>   1</c></rc>
    <rc><c>Hf</c><c>   1</c></rc>
    <rc><c>Hf</c><c>   1</c></rc>
    <rc><c>Hf</c><c>   1</c></rc>
    <rc><c>Zr</c><c>   2</c></rc>
    <rc><c>Zr</c><c>   2</c></rc>
    <rc><c>Zr</c><c>   2</c></rc>
    <rc><c>Zr</c><c>   2</c></rc>
    <rc><c>Zr</c><c>   2</c></rc>
    <rc><c>Zr</c><c>   2</c></rc>
    <rc><c>Ta</c><c>   3</c></rc>
    <rc><c>Ta</c><c>   3</c></rc>
    <rc><c>Ta</c><c>   3</c></rc>
    <rc><c>Ta</c><c>   3</c></rc>
    <rc><c>Ta</c><c>   3</c></rc>
    <rc><c>Ta</c><c>   3</c></rc>
    <rc><c>Ta</c><c>   3</c></rc>
    <rc><c>Ta</c><c>   3</c></rc>
    <rc><c>Ta</c><c>   3</c></rc>
    <rc><c>Ta</c><c>   3</c></rc>
    <rc><c>Ta</c><c>   3</c></rc>
    <rc><c>Ta</c><c>   3</c></rc>
    <rc><c>Nb</c><c>   4</c></rc>
    <rc><c>Nb</c><c>   4</c></rc>
    <rc><c>Nb</c><c>   4</c></rc>
    <rc><c>Nb</c><c>   4</c></rc>
    <rc><c>Nb</c><c>   4</c></rc>
    <rc><c>Nb</c><c>   4</c></rc>
    <rc><c>Nb</c><c>   4</c></rc>
    <rc><c>Nb</c><c>   4</c></rc>
   </set>
  </array>
  <array name="atomtypes" >
   <dimension dim="1">type</dimension>
   <field type="int">atomspertype</field>
   <field type="string">element</field>
   <field>mass</field>
   <field>valence</field>
   <field type="string">pseudopotential</field>
   <set>
    <rc><c>  10</c><c>Hf</c><c>    178.49000000</c><c>      4.00000000</c><c>  PAW_PBE Hf 20Jan2003                  </c></rc>
    <rc><c>   6</c><c>Zr</c><c>     91.22400000</c><c>     12.00000000</c><c>  PAW_PBE Zr_sv 04Jan2005               </c></rc>
    <rc><c>  12</c><c>Ta</c><c>    180.94800000</c><c>      5.00000000</c><c>  PAW_PBE Ta 17Jan2003                  </c></rc>
    <rc><c>   8</c><c>Nb</c><c>     92.91000000</c><c>     13.00000000</c><c>  PAW_PBE Nb_sv 25May2007               </c></rc>
   </set>
  </array>
 </atominfo>
 <structure name="initialpos" >
  <crystal>
   <varray name="basis" >
    <v>       6.91473047       0.00692876       0.01545877 </v>
    <v>       0.01050039      10.19910361      -0.00076820 </v>
    <v>       0.02309588      -0.00107747      10.17174772 </v>
   </varray>
   <i name="volume">    717.34848359 </i>
   <varray name="rec_basis" >
    <v>       0.14461968      -0.00014892      -0.00032839 </v>
    <v>      -0.00009827       0.09804793       0.00001061 </v>
    <v>      -0.00021980       0.00000763       0.09831202 </v>
   </varray>
  </crystal>
  <varray name="positions" >
   <v>       0.75145400       0.49882100       0.16824400 </v>
   <v>       0.26714500       0.82965400       0.84035200 </v>
   <v>       0.71833400       0.83295600       0.50154800 </v>
   <v>       0.73415800       0.49861200       0.83490600 </v>
   <v>       0.24722700       0.50764800       0.15344800 </v>
   <v>       0.02040200       0.68187300       0.33699900 </v>
   <v>       0.75525100       0.17509300       0.49824400 </v>
   <v>       0.46327000       0.33340700       0.33497000 </v>
   <v>       0.01734400       0.99441500       0.33409600 </v>
   <v>       0.75554200       0.18132700       0.17646700 </v>
   <v>       0.74920400       0.49397200       0.49693100 </v>
   <v>       0.99216800       0.99800700       0.99977600 </v>
   <v>       0.01200800       0.32256400       0.98078500 </v>
   <v>       0.00422000       0.66699100       0.66844700 </v>
   <v>       0.48468900       0.00088500       0.32145200 </v>
   <v>       0.99769600       0.99863100       0.66876600 </v>
   <v>       0.24437700       0.16981400       0.51176700 </v>
   <v>       0.03629600       0.32950900       0.34261500 </v>
   <v>       0.01239900       0.33376100       0.67085400 </v>
   <v>       0.26591200       0.50157400       0.83515900 </v>
   <v>       0.28421700       0.83235500       0.51099100 </v>
   <v>       0.26442400       0.82365000       0.15135000 </v>
   <v>       0.48497300       0.33412100       0.66732100 </v>
   <v>       0.48752200       0.31757300       0.99097600 </v>
   <v>       0.24872100       0.49942100       0.50702800 </v>
   <v>       0.47806600       0.66891500       0.33347200 </v>
   <v>       0.50813600       0.00328300       0.00238000 </v>
   <v>       0.48900500       0.65643800       0.66622000 </v>
   <v>       0.51226200       0.67334600       0.00321000 </v>
   <v>       0.73503400       0.82650500       0.83973300 </v>
   <v>       0.24914600       0.16832000       0.15900400 </v>
   <v>       0.98891600       0.67822700       0.00432900 </v>
   <v>       0.49939700       0.00839800       0.67480400 </v>
   <v>       0.73503300       0.17030800       0.82360100 </v>
   <v>       0.74168400       0.82916500       0.16520800 </v>
   <v>       0.26435600       0.16047200       0.82454500 </v>
  </varray>
 </structure>
 <calculation>
  <scstep>
   <time name="dav">    0.93    1.10</time>
   <time name="total">    0.99    2.04</time>
   <energy>
    <i name="alphaZ">   1438.15555718 </i>
    <i name="ewald"> -16793.20790578 </i>
    <i name="hartreedc">  -6724.15686952 </i>
    <i name="XCdc">   -576.96771956 </i>
    <i name="pawpsdc">  19401.59854195 </i>
    <i name="pawaedc"> -17659.58838017 </i>
    <i name="eentropy">     -0.00448093 </i>
    <i name="bandstr">     36.12373078 </i>
    <i name="atom">  22472.65029968 </i>
    <i name="e_fr_energy">   1594.60277363 </i>
    <i name="e_wo_entrp">   1594.60725456 </i>
    <i name="e_0_energy">   1594.60426727 </i>
   </energy>
  </scstep>
  <scstep>
   <time name="dav">    0.94    1.91</time>
   <time name="total">    0.98    2.21</time>
   <energy>
    <i name="e_fr_energy">   -137.19988640 </i>
    <i name="e_wo_entrp">   -137.20418830 </i>
    <i name="e_0_energy">   -137.20132037 </i>
   </energy>
  </scstep>
  <scstep>
   <time name="dav">    1.30    1.31</time>
   <time name="total">    1.30    1.36</time>
   <energy>
    <i name="e_fr_energy">   -359.04511286 </i>
    <i name="e_wo_entrp">   -359.05715612 </i>
    <i name="e_0_energy">   -359.04912728 </i>
   </energy>
  </scstep>
  <scstep>
   <time name="dav">    1.56    1.57</time>
   <time name="total">    1.57    1.62</time>
   <energy>
    <i name="e_fr_energy">   -384.38378575 </i>
    <i name="e_wo_entrp">   -384.37617312 </i>
    <i name="e_0_energy">   -384.38124821 </i>
   </energy>
  </scstep>
  <scstep>
   <time name="dav">    1.40    1.40</time>
   <time name="total">    1.43    1.48</time>
   <energy>
    <i name="e_fr_energy">   -386.78011847 </i>
    <i name="e_wo_entrp">   -386.77496484 </i>
    <i name="e_0_energy">   -386.77840060 </i>
   </energy>
  </scstep>
  <scstep>
   <time name="diag">    0.07    0.07</time>
   <time name="diis">    0.77    0.77</time>
   <time name="orth">    0.06    0.06</time>
   <time name="total">    0.98    1.07</time>
   <energy>
    <i name="e_fr_energy">   -376.01958924 </i>
    <i name="e_wo_entrp">   -376.02449041 </i>
    <i name="e_0_energy">   -376.02122296 </i>
   </energy>
  </scstep>
  <scstep>
   <time name="diag">    0.11    0.12</time>
   <time name="diis">    0.66    0.68</time>
   <time name="orth">    0.01    0.01</time>
   <time name="total">    0.86    0.94</time>
   <energy>
    <i name="e_fr_energy">   -374.01302783 </i>
    <i name="e_wo_entrp">   -374.03276437 </i>
    <i name="e_0_energy">   -374.01960667 </i>
   </energy>
  </scstep>
  <scstep>
   <time name="diag">    0.07    0.07</time>
   <time name="diis">    0.78    0.78</time>
   <time name="orth">    0.01    0.01</time>
   <time name="total">    0.93    0.97</time>
   <energy>
    <i name="e_fr_energy">   -371.57518250 </i>
    <i name="e_wo_entrp">   -371.58949801 </i>
    <i name="e_0_energy">   -371.57995434 </i>
   </energy>
  </scstep>
  <scstep>
   <time name="diag">    0.09    0.09</time>
   <time name="diis">    0.85    0.85</time>
   <time name="orth">    0.01    0.01</time>
   <time name="total">    1.01    1.05</time>
   <energy>
    <i name="e_fr_energy">   -371.60873224 </i>
    <i name="e_wo_entrp">   -371.62293386 </i>
    <i name="e_0_energy">   -371.61346611 </i>
   </energy>
  </scstep>
  <scstep>
   <time name="diag">    0.07    0.07</time>
   <time name="diis">    0.78    0.78</time>
   <time name="orth">    0.01    0.01</time>
   <time name="total">    0.93    0.98</time>
   <energy>
    <i name="e_fr_energy">   -371.53436991 </i>
    <i name="e_wo_entrp">   -371.55044599 </i>
    <i name="e_0_energy">   -371.53972860 </i>
   </energy>
  </scstep>
  <scstep>
   <time name="diag">    0.07    0.17</time>
   <time name="diis">    0.69    0.83</time>
   <time name="orth">    0.01    0.01</time>
   <time name="total">    0.87    1.16</time>
   <energy>
    <i name="e_fr_energy">   -371.51579611 </i>
    <i name="e_wo_entrp">   -371.53128134 </i>
    <i name="e_0_energy">   -371.52095786 </i>
   </energy>
  </scstep>
  <scstep>
   <time name="diag">    0.07    0.07</time>
   <time name="diis">    0.76    0.77</time>
   <time name="orth">    0.01    0.01</time>
   <time name="total">    0.91    0.96</time>
   <energy>
    <i name="e_fr_energy">   -371.51471163 </i>
    <i name="e_wo_entrp">   -371.53100394 </i>
    <i name="e_0_energy">   -371.52014240 </i>
   </energy>
  </scstep>
  <scstep>
   <time name="diag">    0.08    0.08</time>
   <time name="diis">    0.82    0.82</time>
   <time name="orth">    0.01    0.01</time>
   <time name="total">    0.97    1.02</time>
   <energy>
    <i name="e_fr_energy">   -371.51447146 </i>
    <i name="e_wo_entrp">   -371.53067102 </i>
    <i name="e_0_energy">   -371.51987131 </i>
   </energy>
  </scstep>
  <scstep>
   <time name="diag">    0.07    0.07</time>
   <time name="diis">    0.72    0.81</time>
   <time name="orth">    0.02    0.02</time>
   <time name="total">    0.89    1.02</time>
   <energy>
    <i name="e_fr_energy">   -371.51423800 </i>
    <i name="e_wo_entrp">   -371.53032730 </i>
    <i name="e_0_energy">   -371.51960110 </i>
   </energy>
  </scstep>
  <scstep>
   <time name="diag">    0.07    0.07</time>
   <time name="diis">    0.83    0.83</time>
   <time name="orth">    0.01    0.01</time>
   <time name="total">    0.97    1.02</time>
   <energy>
    <i name="e_fr_energy">   -371.51433478 </i>
    <i name="e_wo_entrp">   -371.53047551 </i>
    <i name="e_0_energy">   -371.51971502 </i>
   </energy>
  </scstep>
  <scstep>
   <time name="diag">    0.07    0.07</time>
   <time name="diis">    0.68    0.68</time>
   <time name="orth">    0.01    0.01</time>
   <time name="total">    0.82    0.86</time>
   <energy>
    <i name="e_fr_energy">   -371.51435079 </i>
    <i name="e_wo_entrp">   -371.53045187 </i>
    <i name="e_0_energy">   -371.51971782 </i>
   </energy>
  </scstep>
  <scstep>
   <time name="diag">    0.08    0.08</time>
   <time name="diis">    0.58    0.59</time>
   <time name="orth">    0.01    0.01</time>
   <time name="total">    0.81    0.87</time>
   <energy>
    <i name="e_fr_energy">   -371.51436055 </i>
    <i name="e_wo_entrp">   -371.53049282 </i>
    <i name="e_0_energy">   -371.51973797 </i>
   </energy>
  </scstep>
  <scstep>
   <time name="diag">    0.08    0.08</time>
   <time name="diis">    0.55    0.55</time>
   <time name="orth">    0.01    0.01</time>
   <time name="total">    0.92    0.97</time>
   <energy>
    <i name="e_fr_energy">   -371.51436885 </i>
    <i name="e_wo_entrp">   -371.53050983 </i>
    <i name="e_0_energy">   -371.51974917 </i>
   </energy>
  </scstep>
  <scstep>
   <time name="diag">    0.08    0.08</time>
   <time name="diis">    0.43    0.43</time>
   <time name="orth">    0.01    0.01</time>
   <time name="total">    0.55    0.60</time>
   <energy>
    <i name="alphaZ">   1438.15555718 </i>
    <i name="ewald"> -16793.20790578 </i>
    <i name="hartreedc">  -6521.06354949 </i>
    <i name="XCdc">   -573.16126536 </i>
    <i name="pawpsdc">  31584.91861828 </i>
    <i name="pawaedc"> -29830.40764127 </i>
    <i name="eentropy">      0.01613914 </i>
    <i name="bandstr">  -2149.41462266 </i>
    <i name="atom">  22472.65029968 </i>
    <i name="e_fr_energy">   -371.51437026 </i>
    <i name="e_wo_entrp">   -371.53050940 </i>
    <i name="e_0_energy">   -371.51974997 </i>
   </energy>
  </scstep>
  <structure>
   <crystal>
    <varray name="basis" >
     <v>       6.91473047       0.00692876       0.01545877 </v>
     <v>       0.01050039      10.19910361      -0.00076820 </v>
     <v>       0.02309588      -0.00107747      10.17174772 </v>
    </varray>
    <i name="volume">    717.34848359 </i>
    <varray name="rec_basis" >
     <v>       0.14461968      -0.00014892      -0.00032839 </v>
     <v>      -0.00009827       0.09804793       0.00001061 </v>
     <v>      -0.00021980       0.00000763       0.09831202 </v>
    </varray>
   </crystal>
   <varray name="positions" >
    <v>       0.75145400       0.49882100       0.16824400 </v>
    <v>       0.26714500       0.82965400       0.84035200 </v>
    <v>       0.71833400       0.83295600       0.50154800 </v>
    <v>       0.73415800       0.49861200       0.83490600 </v>
    <v>       0.24722700       0.50764800       0.15344800 </v>
    <v>       0.02040200       0.68187300       0.33699900 </v>
    <v>       0.75525100       0.17509300       0.49824400 </v>
    <v>       0.46327000       0.33340700       0.33497000 </v>
    <v>       0.01734400       0.99441500       0.33409600 </v>
    <v>       0.75554200       0.18132700       0.17646700 </v>
    <v>       0.74920400       0.49397200       0.49693100 </v>
    <v>       0.99216800       0.99800700       0.99977600 </v>
    <v>       0.01200800       0.32256400       0.98078500 </v>
    <v>       0.00422000       0.66699100       0.66844700 </v>
    <v>       0.48468900       0.00088500       0.32145200 </v>
    <v>       0.99769600       0.99863100       0.66876600 </v>
    <v>       0.24437700       0.16981400       0.51176700 </v>
    <v>       0.03629600       0.32950900       0.34261500 </v>
    <v>       0.01239900       0.33376100       0.67085400 </v>
    <v>       0.26591200       0.50157400       0.83515900 </v>
    <v>       0.28421700       0.83235500       0.51099100 </v>
    <v>       0.26442400       0.82365000       0.15135000 </v>
    <v>       0.48497300       0.33412100       0.66732100 </v>
    <v>       0.48752200       0.31757300       0.99097600 </v>
    <v>       0.24872100       0.49942100       0.50702800 </v>
    <v>       0.47806600       0.66891500       0.33347200 </v>
    <v>       0.50813600       0.00328300       0.00238000 </v>
    <v>       0.48900500       0.65643800       0.66622000 </v>
    <v>       0.51226200       0.67334600       0.00321000 </v>
    <v>       0.73503400       0.82650500       0.83973300 </v>
    <v>       0.24914600       0.16832000       0.15900400 </v>
    <v>       0.98891600       0.67822700       0.00432900 </v>
    <v>       0.49939700       0.00839800       0.67480400 </v>
    <v>       0.73503300       0.17030800       0.82360100 </v>
    <v>       0.74168400       0.82916500       0.16520800 </v>
    <v>       0.26435600       0.16047200       0.82454500 </v>
   </varray>
  </structure>
  <varray name="forces" >
   <v>       0.00192072      -0.02041981       0.00351138 </v>
   <v>      -0.00447225       0.00858426      -0.01516760 </v>
   <v>      -0.00255498       0.00604863       0.00773115 </v>
   <v>       0.00887251       0.00384045       0.07706306 </v>
   <v>      -0.02201155       0.00501724       0.00534126 </v>
   <v>      -0.01211923      -0.03143444      -0.02378537 </v>
   <v>       0.00357016      -0.00405365       0.00342848 </v>
   <v>       0.01916010       0.02029201      -0.01851123 </v>
   <v>      -0.00470002      -0.00133923      -0.00680263 </v>
   <v>      -0.00323547       0.09758863       0.01328728 </v>
   <v>       0.00369483       0.00239811      -0.08679597 </v>
   <v>      -0.00831877      -0.01467198       0.00765360 </v>
   <v>      -0.02133629       0.03102498       0.02998966 </v>
   <v>       0.00335377      -0.00097496       0.01111682 </v>
   <v>       0.00497711      -0.00720709      -0.00428874 </v>
   <v>      -0.00424361      -0.00187318       0.00343574 </v>
   <v>       0.00754095      -0.00058882       0.01176626 </v>
   <v>      -0.03410027       0.02313310      -0.04987824 </v>
   <v>      -0.00508505       0.00540560       0.01151877 </v>
   <v>      -0.00375250      -0.00477509      -0.02482826 </v>
   <v>      -0.00664712       0.01052035       0.01537763 </v>
   <v>      -0.00095757       0.01574113      -0.00060246 </v>
   <v>      -0.00216972       0.00811632       0.01051622 </v>
   <v>       0.05708592       0.04651789       0.05381275 </v>
   <v>      -0.01893614      -0.00455422      -0.00190187 </v>
   <v>       0.02585198      -0.03192688      -0.03381760 </v>
   <v>       0.01277613      -0.00975394       0.01120916 </v>
   <v>       0.00282610      -0.01069467       0.01464352 </v>
   <v>       0.01700380      -0.00938045       0.00586932 </v>
   <v>       0.00182335       0.00389247      -0.01121249 </v>
   <v>       0.00928693      -0.01855103      -0.00623754 </v>
   <v>      -0.02317321      -0.02067608       0.00676642 </v>
   <v>      -0.00182157      -0.00022823      -0.00095539 </v>
   <v>      -0.00250061      -0.00054009       0.00132140 </v>
   <v>       0.00857542      -0.08361775      -0.00363795 </v>
   <v>      -0.00618384      -0.01085959      -0.01693655 </v>
  </varray>
  <varray name="stress" >
   <v>      -1.92040353      -0.08523186      -0.12405588 </v>
   <v>      -0.08523184      -1.69033242      -0.15917418 </v>
   <v>      -0.12405581      -0.15917420      -1.36643160 </v>
  </varray>
  <energy>
   <i name="e_fr_energy">   -371.51437026 </i>
   <i name="e_wo_entrp">   -371.51974997 </i>
   <i name="e_0_energy">      0.01613914 </i>
  </energy>
  <time name="totalsc">   20.28   23.97</time>
 </calculation>
 <calculation>
  <scstep>
   <time name="dav">    1.06    1.07</time>
   <time name="total">    1.15    1.46</time>
   <energy>
    <i name="alphaZ">   1439.44475358 </i>
    <i name="ewald"> -16798.83123579 </i>
    <i name="hartreedc">  -6522.44162435 </i>
    <i name="XCdc">   -572.93797233 </i>
    <i name="pawpsdc">  31584.80452446 </i>
    <i name="pawaedc"> -29830.28669830 </i>
    <i name="eentropy">      0.01625518 </i>
    <i name="bandstr">  -2143.93540191 </i>
    <i name="atom">  22472.65029968 </i>
    <i name="e_fr_energy">   -371.51709979 </i>
    <i name="e_wo_entrp">   -371.53335497 </i>
    <i name="e_0_energy">   -371.52251819 </i>
   </energy>
  </scstep>
  <scstep>
   <time name="diag">    0.08    0.09</time>
   <time name="diis">    0.78    0.78</time>
   <time name="orth">    0.01    0.01</time>
   <time name="total">    0.96    1.00</time>
   <energy>
    <i name="e_fr_energy">   -371.51651987 </i>
    <i name="e_wo_entrp">   -371.53288158 </i>
    <i name="e_0_energy">   -371.52197377 </i>
   </energy>
  </scstep>
  <scstep>
   <time name="diag">    0.11    0.11</time>
   <time name="diis">    0.76    0.76</time>
   <time name="orth">    0.01    0.01</time>
   <time name="total">    0.94    0.99</time>
   <energy>
    <i name="e_fr_energy">   -371.51583329 </i>
    <i name="e_wo_entrp">   -371.53208349 </i>
    <i name="e_0_energy">   -371.52125003 </i>
   </energy>
  </scstep>
  <scstep>
   <time name="diag">    0.13    0.13</time>
   <time name="diis">    0.84    0.84</time>
   <time name="orth">    0.01    0.01</time>
   <time name="total">    1.04    1.10</time>
   <energy>
    <i name="e_fr_energy">   -371.51563314 </i>
    <i name="e_wo_entrp">   -371.53197805 </i>
    <i name="e_0_energy">   -371.52108144 </i>
   </energy>
  </scstep>
  <scstep>
   <time name="diag">    0.07    0.07</time>
   <time name="diis">    0.69    0.70</time>
   <time name="orth">    0.01    0.01</time>
   <time name="total">    0.84    0.88</time>
   <energy>
    <i name="e_fr_energy">   -371.51559329 </i>
    <i name="e_wo_entrp">   -371.53191628 </i>
    <i name="e_0_energy">   -371.52103429 </i>
   </energy>
  </scstep>
  <scstep>
   <time name="diag">    0.07    0.07</time>
   <time name="diis">    0.52    0.52</time>
   <time name="orth">    0.01    0.01</time>
   <time name="total">    0.66    0.71</time>
   <energy>
    <i name="e_fr_energy">   -371.51560495 </i>
    <i name="e_wo_entrp">   -371.53192795 </i>
    <i name="e_0_energy">   -371.52104595 </i>
   </energy>
  </scstep>
  <scstep>
   <time name="diag">    0.07    0.07</time>
   <time name="diis">    0.37    0.38</time>
   <time name="orth">    0.01    0.01</time>
   <time name="total">    0.49    0.54</time>
   <energy>
    <i name="alphaZ">   1439.44475358 </i>
    <i name="ewald"> -16798.83123579 </i>
    <i name="hartreedc">  -6519.08774276 </i>
    <i name="XCdc">   -573.07458722 </i>
    <i name="pawpsdc">  31622.06947663 </i>
    <i name="pawaedc"> -29867.64557428 </i>
    <i name="eentropy">      0.01632398 </i>
    <i name="bandstr">  -2147.05732639 </i>
    <i name="atom">  22472.65029968 </i>
    <i name="e_fr_energy">   -371.51561258 </i>
    <i name="e_wo_entrp">   -371.53193656 </i>
    <i name="e_0_energy">   -371.52105391 </i>
   </energy>
  </scstep>
  <structure>
   <crystal>
    <varray name="basis" >
     <v>       6.91233981       0.00682013       0.01530037 </v>
     <v>       0.01034031      10.19600032      -0.00106046 </v>
     <v>       0.02286077      -0.00136893      10.16924543 </v>
    </varray>
    <i name="volume">    716.70601151 </i>
    <varray name="rec_basis" >
     <v>       0.14466968      -0.00014675      -0.00032524 </v>
     <v>      -0.00009680       0.09807777       0.00001342 </v>
     <v>      -0.00021768       0.00001045       0.09833620 </v>
    </varray>
   </crystal>
   <varray name="positions" >
    <v>       0.75145805       0.49879202       0.16824899 </v>
    <v>       0.26713569       0.82966619       0.84033043 </v>
    <v>       0.71832860       0.83296459       0.50155901 </v>
    <v>       0.73417620       0.49861745       0.83501562 </v>
    <v>       0.24718089       0.50765515       0.15345567 </v>
    <v>       0.02037681       0.68182841       0.33696519 </v>
    <v>       0.75525846       0.17508724       0.49824887 </v>
    <v>       0.46331015       0.33343576       0.33494360 </v>
    <v>       0.01733420       0.99441311       0.33408634 </v>
    <v>       0.75553495       0.18146549       0.17648593 </v>
    <v>       0.74921214       0.49397538       0.49680749 </v>
    <v>       0.99215058       0.99798619       0.99978691 </v>
    <v>       0.01196313       0.32260806       0.98082774 </v>
    <v>       0.00422697       0.66698961       0.66846281 </v>
    <v>       0.48469945       0.00087477       0.32144588 </v>
    <v>       0.99768711       0.99862835       0.66877090 </v>
    <v>       0.24439273       0.16981316       0.51178372 </v>
    <v>       0.03622481       0.32954187       0.34254414 </v>
    <v>       0.01238829       0.33376868       0.67087041 </v>
    <v>       0.26590427       0.50156723       0.83512368 </v>
    <v>       0.28420299       0.83236994       0.51101290 </v>
    <v>       0.26442196       0.82367234       0.15134915 </v>
    <v>       0.48496839       0.33413252       0.66733597 </v>
    <v>       0.48764113       0.31763894       0.99105239 </v>
    <v>       0.24868138       0.49941456       0.50702535 </v>
    <v>       0.47812034       0.66886965       0.33342380 </v>
    <v>       0.50816271       0.00326914       0.00239591 </v>
    <v>       0.48901087       0.65642282       0.66624083 </v>
    <v>       0.51229758       0.67333267       0.00321830 </v>
    <v>       0.73503786       0.82651052       0.83971704 </v>
    <v>       0.24916551       0.16829366       0.15899509 </v>
    <v>       0.98886751       0.67819769       0.00433870 </v>
    <v>       0.49939319       0.00839768       0.67480265 </v>
    <v>       0.73502776       0.17030724       0.82360289 </v>
    <v>       0.74170215       0.82904633       0.16520279 </v>
    <v>       0.26434316       0.16045660       0.82452092 </v>
   </varray>
  </structure>
  <varray name="forces" >
   <v>       0.00242340      -0.01891355       0.00310539 </v>
   <v>      -0.00677966       0.00830335      -0.01448680 </v>
   <v>       0.00053024       0.00564784       0.00785258 </v>
   <v>       0.01059474       0.00553930       0.07141476 </v>
   <v>      -0.02084704       0.00349422       0.00252471 </v>
   <v>      -0.01391697      -0.02866196      -0.02032059 </v>
   <v>       0.00221028      -0.00470095       0.00267376 </v>
   <v>       0.01630328       0.01933979      -0.01784937 </v>
   <v>      -0.00622071      -0.00079888      -0.00613939 </v>
   <v>      -0.00215801       0.08905679       0.01370982 </v>
   <v>       0.00428824       0.00189680      -0.08105466 </v>
   <v>      -0.00848882      -0.01172669       0.00711954 </v>
   <v>      -0.02063622       0.02851596       0.02893011 </v>
   <v>      -0.00054718      -0.00154753       0.00968535 </v>
   <v>       0.00880327      -0.00505908      -0.00380729 </v>
   <v>      -0.00474561      -0.00193041       0.00280626 </v>
   <v>       0.00690984      -0.00248127       0.00717006 </v>
   <v>      -0.03066890       0.02100118      -0.04667513 </v>
   <v>      -0.00708372       0.00464353       0.01206395 </v>
   <v>      -0.00596280      -0.00297978      -0.01893128 </v>
   <v>      -0.00915372       0.01015164       0.01164762 </v>
   <v>      -0.00276322       0.01504790       0.00004150 </v>
   <v>       0.00198986       0.00800307       0.00811668 </v>
   <v>       0.05173279       0.04277487       0.05002883 </v>
   <v>      -0.01851215      -0.00291797      -0.00189399 </v>
   <v>       0.02574278      -0.02967791      -0.03018945 </v>
   <v>       0.01265957      -0.00753884       0.00971747 </v>
   <v>       0.00625608      -0.00933619       0.01223798 </v>
   <v>       0.01233141      -0.01140946       0.00522942 </v>
   <v>       0.00426009       0.00549369      -0.01301807 </v>
   <v>       0.00901878      -0.01934072      -0.00580698 </v>
   <v>      -0.01810123      -0.02196297       0.00401994 </v>
   <v>      -0.00149333      -0.00009877      -0.00149346 </v>
   <v>       0.00173007      -0.00095997       0.00307388 </v>
   <v>       0.00915340      -0.07800913      -0.00047344 </v>
   <v>      -0.00885883      -0.00885790      -0.01102970 </v>
  </varray>
  <varray name="stress" >
   <v>      -0.77339081      -0.07116054      -0.09343442 </v>
   <v>      -0.07116051      -0.54156351      -0.13714784 </v>
   <v>      -0.09343439      -0.13714783      -0.25387180 </v>
  </varray>
  <energy>
   <i name="e_fr_energy">   -371.51561258 </i>
   <i name="e_wo_entrp">   -371.52105391 </i>
   <i name="e_0_energy">      0.01632398 </i>
  </energy>
  <time name="totalsc">    7.68    8.45</time>
 </calculation>
 <calculation>
  <scstep>
   <time name="dav">    0.99    1.00</time>
   <time name="total">    1.08    1.28</time>
   <energy>
    <i name="alphaZ">   1441.92501396 </i>
    <i name="ewald"> -16809.63129370 </i>
    <i name="hartreedc">  -6521.76874235 </i>
    <i name="XCdc">   -572.64258786 </i>
    <i name="pawpsdc">  31620.82501828 </i>
    <i name="pawaedc"> -29866.37024019 </i>
    <i name="eentropy">      0.01653457 </i>
    <i name="bandstr">  -2136.52585268 </i>
    <i name="atom">  22472.65029968 </i>
    <i name="e_fr_energy">   -371.52185029 </i>
    <i name="e_wo_entrp">   -371.53838486 </i>
    <i name="e_0_energy">   -371.52736181 </i>
   </energy>
  </scstep>
  <scstep>
   <time name="diag">    0.07    0.07</time>
   <time name="diis">    0.75    0.76</time>
   <time name="orth">    0.01    0.01</time>
   <time name="total">    0.90    0.95</time>
   <energy>
    <i name="e_fr_energy">   -371.51972439 </i>
    <i name="e_wo_entrp">   -371.53645358 </i>
    <i name="e_0_energy">   -371.52530079 </i>
   </energy>
  </scstep>
  <scstep>
   <time name="diag">    0.07    0.07</time>
   <time name="diis">    0.72    0.80</time>
   <time name="orth">    0.01    0.01</time>
   <time name="total">    0.87    1.06</time>
   <energy>
    <i name="e_fr_energy">   -371.51717729 </i>
    <i name="e_wo_entrp">   -371.53369461 </i>
    <i name="e_0_energy">   -371.52268306 </i>
   </energy>
  </scstep>
  <scstep>
   <time name="diag">    0.09    0.11</time>
   <time name="diis">    0.84    0.85</time>
   <time name="orth">    0.01    0.01</time>
   <time name="total">    1.00    1.15</time>
   <energy>
    <i name="e_fr_energy">   -371.51645490 </i>
    <i name="e_wo_entrp">   -371.53315232 </i>
    <i name="e_0_energy">   -371.52202071 </i>
   </energy>
  </scstep>
  <scstep>
   <time name="diag">    0.07    0.07</time>
   <time name="diis">    0.83    0.84</time>
   <time name="orth">    0.01    0.01</time>
   <time name="total">    0.98    1.03</time>
   <energy>
    <i name="e_fr_energy">   -371.51631422 </i>
    <i name="e_wo_entrp">   -371.53296840 </i>
    <i name="e_0_energy">   -371.52186561 </i>
   </energy>
  </scstep>
  <scstep>
   <time name="diag">    0.09    0.09</time>
   <time name="diis">    0.76    0.76</time>
   <time name="orth">    0.01    0.01</time>
   <time name="total">    0.92    0.97</time>
   <energy>
    <i name="e_fr_energy">   -371.51635303 </i>
    <i name="e_wo_entrp">   -371.53300653 </i>
    <i name="e_0_energy">   -371.52190420 </i>
   </energy>
  </scstep>
  <scstep>
   <time name="diag">    0.07    0.07</time>
   <time name="diis">    0.62    0.63</time>
   <time name="orth">    0.01    0.01</time>
   <time name="total">    0.77    0.82</time>
   <energy>
    <i name="e_fr_energy">   -371.51637377 </i>
    <i name="e_wo_entrp">   -371.53302980 </i>
    <i name="e_0_energy">   -371.52192578 </i>
   </energy>
  </scstep>
  <scstep>
   <time name="diag">    0.07    0.07</time>
   <time name="diis">    0.43    0.44</time>
   <time name="orth">    0.01    0.01</time>
   <time name="total">    0.59    0.87</time>
   <energy>
    <i name="e_fr_energy">   -371.51639252 </i>
    <i name="e_wo_entrp">   -371.53303760 </i>
    <i name="e_0_energy">   -371.52194088 </i>
   </energy>
  </scstep>
  <scstep>
   <time name="diag">    0.07    0.07</time>
   <time name="diis">    0.42    0.43</time>
   <time name="orth">    0.01    0.01</time>
   <time name="total">    0.57    0.61</time>
   <energy>
    <i name="e_fr_energy">   -371.51640901 </i>
    <i name="e_wo_entrp">   -371.53306304 </i>
    <i name="e_0_energy">   -371.52196035 </i>
   </energy>
  </scstep>
  <scstep>
   <time name="diag">    0.07    0.07</time>
   <time name="diis">    0.33    0.34</time>
   <time name="orth">    0.01    0.01</time>
   <time name="total">    0.45    0.49</time>
   <energy>
    <i name="alphaZ">   1441.92501396 </i>
    <i name="ewald"> -16809.63129370 </i>
    <i name="hartreedc">  -6515.70445160 </i>
    <i name="XCdc">   -572.88817188 </i>
    <i name="pawpsdc">  31691.13966514 </i>
    <i name="pawaedc"> -29936.55772512 </i>
    <i name="eentropy">      0.01664823 </i>
    <i name="bandstr">  -2142.46640253 </i>
    <i name="atom">  22472.65029968 </i>
    <i name="e_fr_energy">   -371.51641782 </i>
    <i name="e_wo_entrp">   -371.53306605 </i>
    <i name="e_0_energy">   -371.52196723 </i>
   </energy>
  </scstep>
  <structure>
   <crystal>
    <varray name="basis" >
     <v>       6.90774852       0.00661150       0.01499615 </v>
     <v>       0.01003287      10.19004044      -0.00162175 </v>
     <v>       0.02240926      -0.00192868      10.16443979 </v>
    </varray>
    <i name="volume">    715.47320293 </i>
    <varray name="rec_basis" >
     <v>       0.14476580      -0.00014258      -0.00031919 </v>
     <v>      -0.00009397       0.09813513       0.00001883 </v>
     <v>      -0.00021360       0.00001587       0.09838268 </v>
    </varray>
   </crystal>
   <varray name="positions" >
    <v>       0.75146582       0.49873635       0.16825857 </v>
    <v>       0.26711781       0.82968959       0.84028901 </v>
    <v>       0.71831823       0.83298109       0.50158016 </v>
    <v>       0.73421116       0.49862792       0.83522620 </v>
    <v>       0.24709231       0.50766889       0.15347040 </v>
    <v>       0.02032843       0.68174274       0.33690024 </v>
    <v>       0.75527281       0.17507618       0.49825821 </v>
    <v>       0.46338728       0.33349102       0.33489290 </v>
    <v>       0.01731537       0.99440946       0.33406777 </v>
    <v>       0.75552143       0.18173154       0.17652229 </v>
    <v>       0.74922777       0.49398188       0.49657023 </v>
    <v>       0.99211712       0.99794622       0.99980788 </v>
    <v>       0.01187694       0.32269271       0.98090985 </v>
    <v>       0.00424036       0.66698695       0.66849317 </v>
    <v>       0.48471953       0.00085510       0.32143413 </v>
    <v>       0.99767002       0.99862325       0.66878032 </v>
    <v>       0.24442295       0.16981153       0.51181583 </v>
    <v>       0.03608805       0.32960500       0.34240802 </v>
    <v>       0.01236772       0.33378343       0.67090192 </v>
    <v>       0.26588943       0.50155421       0.83505584 </v>
    <v>       0.28417608       0.83239864       0.51105498 </v>
    <v>       0.26441806       0.82371525       0.15134751 </v>
    <v>       0.48495954       0.33415466       0.66736473 </v>
    <v>       0.48787000       0.31776561       0.99119914 </v>
    <v>       0.24860528       0.49940220       0.50702027 </v>
    <v>       0.47822473       0.66878254       0.33333120 </v>
    <v>       0.50821402       0.00324252       0.00242646 </v>
    <v>       0.48902214       0.65639367       0.66628083 </v>
    <v>       0.51236594       0.67330705       0.00323423 </v>
    <v>       0.73504528       0.82652112       0.83968638 </v>
    <v>       0.24920298       0.16824306       0.15897798 </v>
    <v>       0.98877435       0.67814139       0.00435733 </v>
    <v>       0.49938588       0.00839706       0.67480005 </v>
    <v>       0.73501770       0.17030577       0.82360651 </v>
    <v>       0.74173700       0.82881836       0.16519277 </v>
    <v>       0.26431849       0.16042700       0.82447466 </v>
   </varray>
  </structure>
  <varray name="forces" >
   <v>       0.00316733      -0.01681046       0.00236200 </v>
   <v>      -0.01027879       0.00894744      -0.01282418 </v>
   <v>       0.00685693       0.00552876       0.00782899 </v>
   <v>       0.01337115       0.00693661       0.06005631 </v>
   <v>      -0.01811144      -0.00037434      -0.00100672 </v>
   <v>      -0.01730920      -0.02244953      -0.01473694 </v>
   <v>      -0.00062107      -0.00592384       0.00228691 </v>
   <v>       0.01072653       0.01765455      -0.01620261 </v>
   <v>      -0.00964597       0.00002424      -0.00580371 </v>
   <v>      -0.00057309       0.07222103       0.01426011 </v>
   <v>       0.00500832       0.00159694      -0.06785278 </v>
   <v>      -0.00861886      -0.00690144       0.00557551 </v>
   <v>      -0.01738392       0.02288233       0.02677644 </v>
   <v>      -0.00719875      -0.00244206       0.00694767 </v>
   <v>       0.01542733      -0.00058481      -0.00297227 </v>
   <v>      -0.00590576      -0.00269220       0.00231010 </v>
   <v>       0.00597645      -0.00505627      -0.00087955 </v>
   <v>      -0.02357810       0.01708528      -0.04060054 </v>
   <v>      -0.01130898       0.00342890       0.01270574 </v>
   <v>      -0.00987759      -0.00141361      -0.00969395 </v>
   <v>      -0.01377267       0.00876128       0.00479836 </v>
   <v>      -0.00692324       0.01600044       0.00228793 </v>
   <v>       0.01012101       0.00839215       0.00262174 </v>
   <v>       0.04180945       0.03734885       0.04491440 </v>
   <v>      -0.01710424      -0.00073308      -0.00120492 </v>
   <v>       0.02586655      -0.02593361      -0.02432391 </v>
   <v>       0.01154422      -0.00470793       0.00730225 </v>
   <v>       0.01198589      -0.00712550       0.00859533 </v>
   <v>       0.00512112      -0.01380342       0.00423004 </v>
   <v>       0.00707386       0.00748260      -0.01509351 </v>
   <v>       0.00862187      -0.02064211      -0.00606129 </v>
   <v>      -0.00904732      -0.02188433      -0.00087659 </v>
   <v>      -0.00048220      -0.00059880      -0.00317452 </v>
   <v>       0.00924282      -0.00310373       0.00504168 </v>
   <v>       0.00928012      -0.06646780       0.00189524 </v>
   <v>      -0.01345976      -0.00464251       0.00051126 </v>
  </varray>
  <varray name="stress" >
   <v>       1.75173945      -0.04417131      -0.03290816 </v>
   <v>      -0.04417127       1.90764125      -0.03383897 </v>
   <v>      -0.03290814      -0.03383902       2.08205256 </v>
  </varray>
  <energy>
   <i name="e_fr_energy">   -371.51641782 </i>
   <i name="e_wo_entrp">   -371.52196723 </i>
   <i name="e_0_energy">      0.01664823 </i>
  </energy>
  <time name="totalsc">    9.75   11.01</time>
 </calculation>
 <calculation>
  <scstep>
   <time name="dav">    0.86    1.09</time>
   <time name="total">    0.97    1.40</time>
   <energy>
    <i name="alphaZ">   1441.77313990 </i>
    <i name="ewald"> -16809.97023634 </i>
    <i name="hartreedc">  -6514.60356440 </i>
    <i name="XCdc">   -572.91660441 </i>
    <i name="pawpsdc">  31691.31646234 </i>
    <i name="pawaedc"> -29936.70230988 </i>
    <i name="eentropy">      0.01688803 </i>
    <i name="bandstr">  -2143.08132545 </i>
    <i name="atom">  22472.65029968 </i>
    <i name="e_fr_energy">   -371.51725054 </i>
    <i name="e_wo_entrp">   -371.53413857 </i>
    <i name="e_0_energy">   -371.52287988 </i>
   </energy>
  </scstep>
  <scstep>
   <time name="diag">    0.08    0.08</time>
   <time name="diis">    0.74    0.75</time>
   <time name="orth">    0.01    0.01</time>
   <time name="total">    0.92    0.97</time>
   <energy>
    <i name="e_fr_energy">   -371.51743284 </i>
    <i name="e_wo_entrp">   -371.53423153 </i>
    <i name="e_0_energy">   -371.52303240 </i>
   </energy>
  </scstep>
  <scstep>
   <time name="diag">    0.07    0.07</time>
   <time name="diis">    0.81    0.81</time>
   <time name="orth">    0.01    0.01</time>
   <time name="total">    0.95    1.01</time>
   <energy>
    <i name="e_fr_energy">   -371.51737710 </i>
    <i name="e_wo_entrp">   -371.53423829 </i>
    <i name="e_0_energy">   -371.52299750 </i>
   </energy>
  </scstep>
  <scstep>
   <time name="diag">    0.08    0.08</time>
   <time name="diis">    0.56    0.56</time>
   <time name="orth">    0.04    0.04</time>
   <time name="total">    0.71    0.76</time>
   <energy>
    <i name="alphaZ">   1441.77313990 </i>
    <i name="ewald"> -16809.97023634 </i>
    <i name="hartreedc">  -6514.93009858 </i>
    <i name="XCdc">   -572.90294000 </i>
    <i name="pawpsdc">  31687.11344404 </i>
    <i name="pawaedc"> -29932.46619972 </i>
    <i name="eentropy">      0.01683958 </i>
    <i name="bandstr">  -2142.80161580 </i>
    <i name="atom">  22472.65029968 </i>
    <i name="e_fr_energy">   -371.51736724 </i>
    <i name="e_wo_entrp">   -371.53420682 </i>
    <i name="e_0_energy">   -371.52298043 </i>
   </energy>
  </scstep>
  <structure>
   <crystal>
    <varray name="basis" >
     <v>       6.90758443       0.00648714       0.01484685 </v>
     <v>       0.00984953      10.19034510      -0.00189534 </v>
     <v>       0.02218715      -0.00220167      10.16544685 </v>
    </varray>
    <i name="volume">    715.54856973 </i>
    <varray name="rec_basis" >
     <v>       0.14476922      -0.00013999      -0.00031600 </v>
     <v>      -0.00009221       0.09813220       0.00002146 </v>
     <v>      -0.00021146       0.00001850       0.09837292 </v>
    </varray>
   </crystal>
   <varray name="positions" >
    <v>       0.75147410       0.49869550       0.16826501 </v>
    <v>       0.26709400       0.82970884       0.84025826 </v>
    <v>       0.71832513       0.83299379       0.50159726 </v>
    <v>       0.73424666       0.49863976       0.83537696 </v>
    <v>       0.24702736       0.50767402       0.15347526 </v>
    <v>       0.02028101       0.68168365       0.33685794 </v>
    <v>       0.75527757       0.17506523       0.49826449 </v>
    <v>       0.46343570       0.33353262       0.33485465 </v>
    <v>       0.01729219       0.99440804       0.33405394 </v>
    <v>       0.75551490       0.18191783       0.17655263 </v>
    <v>       0.74924241       0.49398622       0.49640013 </v>
    <v>       0.99208970       0.99792258       0.99982247 </v>
    <v>       0.01181399       0.32275189       0.98097239 </v>
    <v>       0.00423406       0.66698321       0.66851305 </v>
    <v>       0.48475261       0.00084654       0.32142609 </v>
    <v>       0.99765358       0.99861826       0.66878666 </v>
    <v>       0.24444479       0.16980533       0.51182776 </v>
    <v>       0.03599497       0.32964916       0.34230866 </v>
    <v>       0.01234108       0.33379315       0.67092861 </v>
    <v>       0.26586749       0.50154743       0.83501792 </v>
    <v>       0.28414292       0.83241982       0.51107721 </v>
    <v>       0.26440524       0.82375009       0.15134939 </v>
    <v>       0.48497235       0.33417276       0.66737916 </v>
    <v>       0.48802955       0.31785754       0.99130751 </v>
    <v>       0.24854697       0.49939644       0.50701694 </v>
    <v>       0.47830873       0.66871899       0.33326712 </v>
    <v>       0.50825334       0.00322664       0.00244676 </v>
    <v>       0.48904607       0.65637411       0.66630635 </v>
    <v>       0.51240174       0.67328159       0.00324528 </v>
    <v>       0.73505976       0.82653359       0.83965743 </v>
    <v>       0.24923207       0.16820004       0.15896441 </v>
    <v>       0.98872227       0.67809473       0.00436387 </v>
    <v>       0.49938217       0.00839615       0.67479551 </v>
    <v>       0.73502861       0.17030177       0.82361350 </v>
    <v>       0.74176615       0.82865369       0.16519079 </v>
    <v>       0.26428677       0.16041002       0.82445666 </v>
   </varray>
  </structure>
  <varray name="forces" >
   <v>       0.00322663      -0.01376131       0.00101306 </v>
   <v>      -0.00887562       0.00831347      -0.01024916 </v>
   <v>       0.00410539       0.00435363       0.00835092 </v>
   <v>       0.01115217       0.00774235       0.05178984 </v>
   <v>      -0.01527183       0.00009240      -0.00356064 </v>
   <v>      -0.01506463      -0.01706708      -0.01142367 </v>
   <v>      -0.00050599      -0.00407461       0.00268723 </v>
   <v>       0.00181440       0.01507564      -0.01353329 </v>
   <v>      -0.00950866       0.00090780      -0.00516960 </v>
   <v>       0.00031233       0.06207631       0.01452920 </v>
   <v>       0.00525747      -0.00029888      -0.05660450 </v>
   <v>      -0.00891536      -0.00487959       0.00511731 </v>
   <v>      -0.01332209       0.01757273       0.02220551 </v>
   <v>      -0.00843426      -0.00328539       0.00429147 </v>
   <v>       0.01676827       0.00002795      -0.00320292 </v>
   <v>      -0.00465830      -0.00085043       0.00132776 </v>
   <v>       0.00340276      -0.00116202      -0.00372423 </v>
   <v>      -0.01350656       0.01162217      -0.03324099 </v>
   <v>      -0.00984469       0.00057602       0.01203365 </v>
   <v>      -0.00698260      -0.00192905      -0.00485393 </v>
   <v>      -0.00941246       0.00427950       0.00053557 </v>
   <v>      -0.00529432       0.00974575       0.00018577 </v>
   <v>       0.01040119       0.00779386       0.00113020 </v>
   <v>       0.03144816       0.02831735       0.03629566 </v>
   <v>      -0.01525460      -0.00195377      -0.00102559 </v>
   <v>       0.02054480      -0.01923573      -0.01863836 </v>
   <v>       0.01102529      -0.00337670       0.00517574 </v>
   <v>       0.01168333      -0.00625378       0.00505043 </v>
   <v>      -0.00036833      -0.01074575       0.00361700 </v>
   <v>       0.00477165       0.00523621      -0.01269817 </v>
   <v>       0.01036315      -0.01731904      -0.00516203 </v>
   <v>      -0.00301564      -0.01775593      -0.00194904 </v>
   <v>      -0.00304155       0.00006828      -0.00316763 </v>
   <v>       0.00793373       0.00009834       0.00660734 </v>
   <v>       0.00624596      -0.06022506       0.00135601 </v>
   <v>      -0.00917918       0.00027436       0.00490408 </v>
  </varray>
  <varray name="stress" >
   <v>       1.67455612      -0.05269985      -0.04534441 </v>
   <v>      -0.05269981       1.86102809      -0.03469257 </v>
   <v>      -0.04534442      -0.03469259       2.03674390 </v>
  </varray>
  <energy>
   <i name="e_fr_energy">   -371.51736724 </i>
   <i name="e_wo_entrp">   -371.52298043 </i>
   <i name="e_0_energy">      0.01683958 </i>
  </energy>
  <time name="totalsc">    5.27    6.02</time>
 </calculation>
 <calculation>
  <scstep>
   <time name="dav">    0.94    0.96</time>
   <time name="total">    1.04    1.27</time>
   <energy>
    <i name="alphaZ">   1441.31773743 </i>
    <i name="ewald"> -16810.95152996 </i>
    <i name="hartreedc">  -6511.66841150 </i>
    <i name="XCdc">   -572.98775134 </i>
    <i name="pawpsdc">  31685.83720109 </i>
    <i name="pawaedc"> -29931.16731461 </i>
    <i name="eentropy">      0.01751923 </i>
    <i name="bandstr">  -2144.56588841 </i>
    <i name="atom">  22472.65029968 </i>
    <i name="e_fr_energy">   -371.51813839 </i>
    <i name="e_wo_entrp">   -371.53565762 </i>
    <i name="e_0_energy">   -371.52397814 </i>
   </energy>
  </scstep>
  <scstep>
   <time name="diag">    0.09    0.09</time>
   <time name="diis">    0.73    0.74</time>
   <time name="orth">    0.01    0.01</time>
   <time name="total">    0.91    0.98</time>
   <energy>
    <i name="e_fr_energy">   -371.51972263 </i>
    <i name="e_wo_entrp">   -371.53700438 </i>
    <i name="e_0_energy">   -371.52548321 </i>
   </energy>
  </scstep>
  <scstep>
   <time name="diag">    0.07    0.07</time>
   <time name="diis">    0.77    0.77</time>
   <time name="orth">    0.01    0.01</time>
   <time name="total">    0.91    0.97</time>
   <energy>
    <i name="e_fr_energy">   -371.51922395 </i>
    <i name="e_wo_entrp">   -371.53667272 </i>
    <i name="e_0_energy">   -371.52504021 </i>
   </energy>
  </scstep>
  <scstep>
   <time name="diag">    0.07    0.07</time>
   <time name="diis">    0.77    0.77</time>
   <time name="orth">    0.01    0.01</time>
   <time name="total">    0.91    0.97</time>
   <energy>
    <i name="e_fr_energy">   -371.51913518 </i>
    <i name="e_wo_entrp">   -371.53652450 </i>
    <i name="e_0_energy">   -371.52493162 </i>
   </energy>
  </scstep>
  <scstep>
   <time name="diag">    0.07    0.07</time>
   <time name="diis">    0.78    0.82</time>
   <time name="orth">    0.01    0.01</time>
   <time name="total">    0.93    1.04</time>
   <energy>
    <i name="e_fr_energy">   -371.51911608 </i>
    <i name="e_wo_entrp">   -371.53651707 </i>
    <i name="e_0_energy">   -371.52491641 </i>
   </energy>
  </scstep>
  <scstep>
   <time name="diag">    0.08    0.10</time>
   <time name="diis">    0.68    0.69</time>
   <time name="orth">    0.01    0.01</time>
   <time name="total">    0.84    0.92</time>
   <energy>
    <i name="e_fr_energy">   -371.51910751 </i>
    <i name="e_wo_entrp">   -371.53651077 </i>
    <i name="e_0_energy">   -371.52490860 </i>
   </energy>
  </scstep>
  <scstep>
   <time name="diag">    0.07    0.07</time>
   <time name="diis">    0.36    0.36</time>
   <time name="orth">    0.01    0.01</time>
   <time name="total">    0.47    0.52</time>
   <energy>
    <i name="alphaZ">   1441.31773743 </i>
    <i name="ewald"> -16810.95152996 </i>
    <i name="hartreedc">  -6512.73617030 </i>
    <i name="XCdc">   -572.94362722 </i>
    <i name="pawpsdc">  31665.41661507 </i>
    <i name="pawaedc"> -29910.70560629 </i>
    <i name="eentropy">      0.01738864 </i>
    <i name="bandstr">  -2143.58421169 </i>
    <i name="atom">  22472.65029968 </i>
    <i name="e_fr_energy">   -371.51910464 </i>
    <i name="e_wo_entrp">   -371.53649329 </i>
    <i name="e_0_energy">   -371.52490086 </i>
   </energy>
  </scstep>
  <structure>
   <crystal>
    <varray name="basis" >
     <v>       6.90709213       0.00611408       0.01439894 </v>
     <v>       0.00929950      10.19125909      -0.00271611 </v>
     <v>       0.02152081      -0.00302062      10.16846803 </v>
    </varray>
    <i name="volume">    715.77465630 </i>
    <varray name="rec_basis" >
     <v>       0.14477948      -0.00013219      -0.00030645 </v>
     <v>      -0.00008692       0.09812339       0.00002933 </v>
     <v>      -0.00020504       0.00002640       0.09834367 </v>
    </varray>
   </crystal>
   <varray name="positions" >
    <v>       0.75149892       0.49857296       0.16828432 </v>
    <v>       0.26702257       0.82976657       0.84016602 </v>
    <v>       0.71834584       0.83303189       0.50164858 </v>
    <v>       0.73435318       0.49867526       0.83582917 </v>
    <v>       0.24683249       0.50768942       0.15348984 </v>
    <v>       0.02013876       0.68150639       0.33673104 </v>
    <v>       0.75529186       0.17503239       0.49828332 </v>
    <v>       0.46358097       0.33365739       0.33473993 </v>
    <v>       0.01722265       0.99440375       0.33401245 </v>
    <v>       0.75549532       0.18247669       0.17664366 </v>
    <v>       0.74928629       0.49399923       0.49588987 </v>
    <v>       0.99200742       0.99785166       0.99986622 </v>
    <v>       0.01162514       0.32292946       0.98115998 </v>
    <v>       0.00421518       0.66697198       0.66857266 </v>
    <v>       0.48485184       0.00082084       0.32140199 </v>
    <v>       0.99760425       0.99860326       0.66880568 </v>
    <v>       0.24451033       0.16978670       0.51186355 </v>
    <v>       0.03571572       0.32978163       0.34201059 </v>
    <v>       0.01226115       0.33382229       0.67100866 </v>
    <v>       0.26580168       0.50152709       0.83490415 </v>
    <v>       0.28404344       0.83248336       0.51114391 </v>
    <v>       0.26436678       0.82385458       0.15135504 </v>
    <v>       0.48501079       0.33422708       0.66742244 </v>
    <v>       0.48850824       0.31813331       0.99163257 </v>
    <v>       0.24837204       0.49937916       0.50700694 </v>
    <v>       0.47856074       0.66852837       0.33307491 </v>
    <v>       0.50837129       0.00317899       0.00250765 </v>
    <v>       0.48911787       0.65631543       0.66638289 </v>
    <v>       0.51250912       0.67320521       0.00327843 </v>
    <v>       0.73510321       0.82657099       0.83957057 </v>
    <v>       0.24931934       0.16807097       0.15892368 </v>
    <v>       0.98856601       0.67795475       0.00438348 </v>
    <v>       0.49937103       0.00839344       0.67478189 </v>
    <v>       0.73506134       0.17028975       0.82363445 </v>
    <v>       0.74185357       0.82815970       0.16518483 </v>
    <v>       0.26419161       0.16035906       0.82440264 </v>
   </varray>
  </structure>
  <varray name="forces" >
   <v>       0.00224921      -0.00354227      -0.00254581 </v>
   <v>      -0.00365632       0.00565057      -0.00090396 </v>
   <v>      -0.00472583      -0.00024482       0.00869182 </v>
   <v>       0.00322390       0.01110785       0.02611759 </v>
   <v>      -0.00616293       0.00282110      -0.01031856 </v>
   <v>      -0.00682743       0.00064193      -0.00090702 </v>
   <v>      -0.00088379       0.00246471       0.00465369 </v>
   <v>      -0.02589991       0.00796826      -0.00403485 </v>
   <v>      -0.00774547       0.00257446      -0.00397050 </v>
   <v>       0.00183892       0.02991864       0.01521577 </v>
   <v>       0.00354753      -0.00537996      -0.02719712 </v>
   <v>      -0.01023626       0.00101928       0.00418194 </v>
   <v>       0.00161185       0.00209339       0.00934432 </v>
   <v>      -0.01071216      -0.00555652      -0.00193610 </v>
   <v>       0.02031946       0.00159376      -0.00539518 </v>
   <v>      -0.00064112       0.00419464      -0.00029433 </v>
   <v>      -0.00311028       0.00990893      -0.01056545 </v>
   <v>       0.01903719      -0.00434241      -0.01062279 </v>
   <v>      -0.00292590      -0.00704333       0.01121434 </v>
   <v>       0.00157508      -0.00243285       0.00636573 </v>
   <v>       0.00354362      -0.00946843      -0.01232072 </v>
   <v>      -0.00090415      -0.00568934      -0.00447192 </v>
   <v>       0.00906164       0.00626177      -0.00259465 </v>
   <v>      -0.00061793       0.00360480       0.01156045 </v>
   <v>      -0.00889325      -0.00438010       0.00184506 </v>
   <v>       0.00477491       0.00197776      -0.00185221 </v>
   <v>       0.00698363      -0.00077390      -0.00030715 </v>
   <v>       0.00949132      -0.00365682      -0.00370469 </v>
   <v>      -0.01598158      -0.00219162       0.00205674 </v>
   <v>      -0.00060652       0.00131458      -0.00779707 </v>
   <v>       0.01608867      -0.01028611      -0.00442564 </v>
   <v>       0.01319303      -0.00685620      -0.00616875 </v>
   <v>      -0.00981110       0.00409196      -0.00101013 </v>
   <v>       0.00537109       0.00603033       0.00851736 </v>
   <v>      -0.00176223      -0.04569809      -0.00218940 </v>
   <v>       0.00019308       0.01230405       0.01576921 </v>
  </varray>
  <varray name="stress" >
   <v>       1.10329989       0.03194474       0.07453527 </v>
   <v>       0.03194476       1.11644435       0.15408886 </v>
   <v>       0.07453528       0.15408881       0.99365475 </v>
  </varray>
  <energy>
   <i name="e_fr_energy">   -371.51910464 </i>
   <i name="e_wo_entrp">   -371.52490086 </i>
   <i name="e_0_energy">      0.01738864 </i>
  </energy>
  <time name="totalsc">    7.73    8.55</time>
 </calculation>
 <calculation>
  <scstep>
   <time name="dav">    0.89    0.90</time>
   <time name="total">    0.99    1.20</time>
   <energy>
    <i name="alphaZ">   1440.40792020 </i>
    <i name="ewald"> -16812.75354990 </i>
    <i name="hartreedc">  -6506.19455360 </i>
    <i name="XCdc">   -573.11870028 </i>
    <i name="pawpsdc">  31665.45601972 </i>
    <i name="pawaedc"> -29910.75555466 </i>
    <i name="eentropy">      0.01858236 </i>
    <i name="bandstr">  -2147.22437458 </i>
    <i name="atom">  22472.65029968 </i>
    <i name="e_fr_energy">   -371.51391106 </i>
    <i name="e_wo_entrp">   -371.53249342 </i>
    <i name="e_0_energy">   -371.52010518 </i>
   </energy>
  </scstep>
  <scstep>
   <time name="diag">    0.07    0.07</time>
   <time name="diis">    0.73    0.73</time>
   <time name="orth">    0.01    0.01</time>
   <time name="total">    0.88    0.92</time>
   <energy>
    <i name="e_fr_energy">   -371.52030355 </i>
    <i name="e_wo_entrp">   -371.53852803 </i>
    <i name="e_0_energy">   -371.52637838 </i>
   </energy>
  </scstep>
  <scstep>
   <time name="diag">    0.07    0.07</time>
   <time name="diis">    0.76    0.76</time>
   <time name="orth">    0.01    0.01</time>
   <time name="total">    0.90    0.95</time>
   <energy>
    <i name="e_fr_energy">   -371.51828233 </i>
    <i name="e_wo_entrp">   -371.53677973 </i>
    <i name="e_0_energy">   -371.52444813 </i>
   </energy>
  </scstep>
  <scstep>
   <time name="diag">    0.07    0.07</time>
   <time name="diis">    0.80    0.80</time>
   <time name="orth">    0.01    0.01</time>
   <time name="total">    0.94    0.99</time>
   <energy>
    <i name="e_fr_energy">   -371.51794373 </i>
    <i name="e_wo_entrp">   -371.53633271 </i>
    <i name="e_0_energy">   -371.52407339 </i>
   </energy>
  </scstep>
  <scstep>
   <time name="diag">    0.07    0.07</time>
   <time name="diis">    0.76    0.77</time>
   <time name="orth">    0.01    0.01</time>
   <time name="total">    0.90    0.96</time>
   <energy>
    <i name="e_fr_energy">   -371.51787438 </i>
    <i name="e_wo_entrp">   -371.53629668 </i>
    <i name="e_0_energy">   -371.52401515 </i>
   </energy>
  </scstep>
  <scstep>
   <time name="diag">    0.07    0.07</time>
   <time name="diis">    0.77    0.78</time>
   <time name="orth">    0.01    0.01</time>
   <time name="total">    0.91    0.97</time>
   <energy>
    <i name="e_fr_energy">   -371.51784683 </i>
    <i name="e_wo_entrp">   -371.53626660 </i>
    <i name="e_0_energy">   -371.52398675 </i>
   </energy>
  </scstep>
  <scstep>
   <time name="diag">    0.07    0.07</time>
   <time name="diis">    0.61    0.62</time>
   <time name="orth">    0.01    0.01</time>
   <time name="total">    0.76    0.81</time>
   <energy>
    <i name="e_fr_energy">   -371.51784492 </i>
    <i name="e_wo_entrp">   -371.53623713 </i>
    <i name="e_0_energy">   -371.52397566 </i>
   </energy>
  </scstep>
  <scstep>
   <time name="diag">    0.07    0.07</time>
   <time name="diis">    0.44    0.44</time>
   <time name="orth">    0.01    0.01</time>
   <time name="total">    0.55    0.61</time>
   <energy>
    <i name="alphaZ">   1440.40792020 </i>
    <i name="ewald"> -16812.75354990 </i>
    <i name="hartreedc">  -6508.19899156 </i>
    <i name="XCdc">   -573.03546848 </i>
    <i name="pawpsdc">  31626.31442889 </i>
    <i name="pawaedc"> -29871.62731156 </i>
    <i name="eentropy">      0.01840566 </i>
    <i name="bandstr">  -2145.29357537 </i>
    <i name="atom">  22472.65029968 </i>
    <i name="e_fr_energy">   -371.51784243 </i>
    <i name="e_wo_entrp">   -371.53624809 </i>
    <i name="e_0_energy">   -371.52397765 </i>
   </energy>
  </scstep>
  <structure>
   <crystal>
    <varray name="basis" >
     <v>       6.90610753       0.00536797       0.01350313 </v>
     <v>       0.00819946      10.19308707      -0.00435766 </v>
     <v>       0.02018813      -0.00465854      10.17451039 </v>
    </varray>
    <i name="volume">    716.22676719 </i>
    <varray name="rec_basis" >
     <v>       0.14480002      -0.00011660      -0.00028736 </v>
     <v>      -0.00007634       0.09810579       0.00004507 </v>
     <v>      -0.00019220       0.00004217       0.09828523 </v>
    </varray>
   </crystal>
   <varray name="positions" >
    <v>       0.75154855       0.49832791       0.16832293 </v>
    <v>       0.26687969       0.82988199       0.83998161 </v>
    <v>       0.71838727       0.83310809       0.50175119 </v>
    <v>       0.73456632       0.49874636       0.83673335 </v>
    <v>       0.24644272       0.50772019       0.15351896 </v>
    <v>       0.01985419       0.68115186       0.33647727 </v>
    <v>       0.75532044       0.17496670       0.49832096 </v>
    <v>       0.46387154       0.33390690       0.33451060 </v>
    <v>       0.01708356       0.99439516       0.33392949 </v>
    <v>       0.75545629       0.18359434       0.17682574 </v>
    <v>       0.74937397       0.49402517       0.49486966 </v>
    <v>       0.99184284       0.99770982       0.99995367 </v>
    <v>       0.01124749       0.32328458       0.98153507 </v>
    <v>       0.00417742       0.66694954       0.66869186 </v>
    <v>       0.48505030       0.00076945       0.32135380 </v>
    <v>       0.99750559       0.99857328       0.66884371 </v>
    <v>       0.24464142       0.16974946       0.51193511 </v>
    <v>       0.03515715       0.33004648       0.34141463 </v>
    <v>       0.01210131       0.33388057       0.67116871 </v>
    <v>       0.26567003       0.50148638       0.83467666 </v>
    <v>       0.28384449       0.83261042       0.51127727 </v>
    <v>       0.26428988       0.82406356       0.15136633 </v>
    <v>       0.48508768       0.33433573       0.66750899 </v>
    <v>       0.48946580       0.31868490       0.99228260 </v>
    <v>       0.24802215       0.49934458       0.50698694 </v>
    <v>       0.47906473       0.66814714       0.33269060 </v>
    <v>       0.50860722       0.00308372       0.00262938 </v>
    <v>       0.48926147       0.65619812       0.66653593 </v>
    <v>       0.51272390       0.67305248       0.00334470 </v>
    <v>       0.73519009       0.82664578       0.83939691 </v>
    <v>       0.24949386       0.16781286       0.15884223 </v>
    <v>       0.98825346       0.67767481       0.00442267 </v>
    <v>       0.49934876       0.00838800       0.67475467 </v>
    <v>       0.73512681       0.17026573       0.82367635 </v>
    <v>       0.74202835       0.82717180       0.16517285 </v>
    <v>       0.26400126       0.16025714       0.82429461 </v>
   </varray>
  </structure>
  <varray name="forces" >
   <v>       0.00100141       0.01586815      -0.01071318 </v>
   <v>       0.00608624       0.00185673       0.01631749 </v>
   <v>      -0.02203345      -0.00719618       0.01073337 </v>
   <v>      -0.01145036       0.01618211      -0.02312225 </v>
   <v>       0.01186702       0.00631985      -0.02506429 </v>
   <v>       0.00829674       0.03508446       0.01805667 </v>
   <v>      -0.00201276       0.01455961       0.00967615 </v>
   <v>      -0.08020211      -0.00740523       0.01324163 </v>
   <v>      -0.00460603       0.00649133      -0.00306525 </v>
   <v>       0.00522102      -0.03593232       0.01453088 </v>
   <v>       0.00324199      -0.01580352       0.03265921 </v>
   <v>      -0.01255350       0.01236206       0.00267783 </v>
   <v>       0.02912849      -0.02819002      -0.01515971 </v>
   <v>      -0.01724673      -0.01001180      -0.01661193 </v>
   <v>       0.02788028       0.00442069      -0.00931839 </v>
   <v>       0.00627802       0.01313762      -0.00445105 </v>
   <v>      -0.01583139       0.03165030      -0.02403565 </v>
   <v>       0.08225907      -0.03583738       0.03256769 </v>
   <v>       0.00933402      -0.02307769       0.00983804 </v>
   <v>       0.01809496      -0.00545777       0.02879233 </v>
   <v>       0.02855800      -0.03450106      -0.03597202 </v>
   <v>       0.00745175      -0.03512744      -0.01445949 </v>
   <v>       0.00770693       0.00265608      -0.00996595 </v>
   <v>      -0.06201718      -0.04406167      -0.03619374 </v>
   <v>       0.00266367      -0.01107720       0.00796429 </v>
   <v>      -0.02574511       0.04363461       0.02963334 </v>
   <v>      -0.00100738       0.00468584      -0.01138556 </v>
   <v>       0.00544824       0.00140992      -0.02020254 </v>
   <v>      -0.04646140       0.01615117      -0.00092569 </v>
   <v>      -0.01172262      -0.00838137       0.00357558 </v>
   <v>       0.02629729       0.00548560      -0.00169654 </v>
   <v>       0.04505153       0.01774756      -0.01369216 </v>
   <v>      -0.02231397       0.01003656       0.00208044 </v>
   <v>       0.00094169       0.01869751       0.01198640 </v>
   <v>      -0.01737116      -0.01407584      -0.00754740 </v>
   <v>       0.01976680       0.03769874       0.03925145 </v>
  </varray>
  <varray name="stress" >
   <v>       0.05442462       0.12196891       0.22165247 </v>
   <v>       0.12196899      -0.12203491       0.42408077 </v>
   <v>       0.22165246       0.42408074      -0.60959070 </v>
  </varray>
  <energy>
   <i name="e_fr_energy">   -371.51784243 </i>
   <i name="e_wo_entrp">   -371.52397765 </i>
   <i name="e_0_energy">      0.01840566 </i>
  </energy>
  <time name="totalsc">    8.41    9.15</time>
 </calculation>
 <calculation>
  <scstep>
   <time name="dav">    0.84    0.96</time>
   <time name="total">    0.93    1.39</time>
   <energy>
    <i name="alphaZ">   1441.05322168 </i>
    <i name="ewald"> -16811.49886375 </i>
    <i name="hartreedc">  -6512.77001103 </i>
[...]
       <r>    6.5532    1.0000 </r>
       <r>    6.5936    1.0000 </r>
       <r>    6.6310    1.0000 </r>
       <r>    6.6684    1.0000 </r>
       <r>    6.7017    1.0000 </r>
       <r>    6.7346    1.0000 </r>
       <r>    6.7802    1.0000 </r>
       <r>    6.8137    1.0001 </r>
       <r>    6.8652    1.0003 </r>
       <r>    6.8995    1.0010 </r>
       <r>    6.9487    1.0039 </r>
       <r>    6.9731    1.0070 </r>
       <r>    6.9842    1.0089 </r>
       <r>    7.0485    1.0259 </r>
       <r>    7.0943    1.0354 </r>
       <r>    7.1089    1.0341 </r>
       <r>    7.1361    1.0197 </r>
       <r>    7.1594    0.9899 </r>
       <r>    7.2102    0.8476 </r>
       <r>    7.2321    0.7523 </r>
       <r>    7.2688    0.5590 </r>
       <r>    7.3308    0.2277 </r>
       <r>    7.3633    0.0986 </r>
       <r>    7.3810    0.0479 </r>
       <r>    7.4259   -0.0226 </r>
       <r>    7.4562   -0.0351 </r>
       <r>    7.4790   -0.0339 </r>
       <r>    7.5202   -0.0228 </r>
       <r>    7.5977   -0.0053 </r>
       <r>    7.6031   -0.0046 </r>
       <r>    7.6414   -0.0017 </r>
       <r>    7.6844   -0.0005 </r>
       <r>    7.7167   -0.0001 </r>
       <r>    7.7726   -0.0000 </r>
       <r>    7.8133   -0.0000 </r>
       <r>    7.8597   -0.0000 </r>
       <r>    7.9161   -0.0000 </r>
       <r>    7.9684   -0.0000 </r>
       <r>    8.0308   -0.0000 </r>
       <r>    8.0996   -0.0000 </r>
       <r>    8.1345   -0.0000 </r>
       <r>    8.4219   -0.0000 </r>
       <r>    8.5167   -0.0000 </r>
       <r>    8.5987   -0.0000 </r>
       <r>    9.1708   -0.0000 </r>
       <r>    9.2447   -0.0000 </r>
       <r>    9.2994   -0.0000 </r>
       <r>    9.3316   -0.0000 </r>
       <r>    9.4087   -0.0000 </r>
      </set>
     </set>
    </set>
   </array>
  </eigenvalues>
  <separator name="orbital magnetization" >
   <v name="MAGDIPOLOUT">      0.00000000      0.00000000      0.00000000</v>
  </separator>
  <dos>
   <i name="efermi">      7.27928460 </i>
   <total>
    <array>
     <dimension dim="1">gridpoints</dimension>
     <dimension dim="2">spin</dimension>
     <field>energy</field>
     <field>total</field>
     <field>integrated</field>
     <set>
      <set comment="spin 1">
       <r>   -49.7918     0.0000     0.0000 </r>
       <r>   -49.5850     0.0000     0.0000 </r>
       <r>   -49.3783     0.0000     0.0000 </r>
       <r>   -49.1716     0.0000     0.0000 </r>
       <r>   -48.9648     0.0000     0.0000 </r>
       <r>   -48.7581     0.0000     0.0000 </r>
       <r>   -48.5513     0.0000     0.0000 </r>
       <r>   -48.3446    -0.0000    -0.0000 </r>
       <r>   -48.1379    -0.0000    -0.0000 </r>
       <r>   -47.9311    -0.0000    -0.0000 </r>
       <r>   -47.7244    -0.0000    -0.0000 </r>
       <r>   -47.5176    -0.0000    -0.0000 </r>
       <r>   -47.3109    -0.0463    -0.0096 </r>
       <r>   -47.1042    -1.2292    -0.2637 </r>
       <r>   -46.8974    27.4271     5.4065 </r>
       <r>   -46.6907    47.1284    15.1497 </r>
       <r>   -46.4840     4.5716    16.0948 </r>
       <r>   -46.2772    -0.4569    16.0004 </r>
       <r>   -46.0705    -0.0019    16.0000 </r>
       <r>   -45.8637    -0.0000    16.0000 </r>
       <r>   -45.6570    -0.0000    16.0000 </r>
       <r>   -45.4503     0.0000    16.0000 </r>
       <r>   -45.2435     0.0000    16.0000 </r>
       <r>   -45.0368     0.0000    16.0000 </r>
       <r>   -44.8301     0.0000    16.0000 </r>
       <r>   -44.6233     0.0000    16.0000 </r>
       <r>   -44.4166     0.0000    16.0000 </r>
       <r>   -44.2098     0.0000    16.0000 </r>
       <r>   -44.0031     0.0000    16.0000 </r>
       <r>   -43.7964     0.0000    16.0000 </r>
       <r>   -43.5896     0.0000    16.0000 </r>
       <r>   -43.3829     0.0000    16.0000 </r>
       <r>   -43.1762     0.0000    16.0000 </r>
       <r>   -42.9694     0.0000    16.0000 </r>
       <r>   -42.7627     0.0000    16.0000 </r>
       <r>   -42.5559     0.0000    16.0000 </r>
       <r>   -42.3492     0.0000    16.0000 </r>
       <r>   -42.1425    -0.0000    16.0000 </r>
       <r>   -41.9357    -0.0000    16.0000 </r>
       <r>   -41.7290    -0.0000    16.0000 </r>
       <r>   -41.5223    -0.0000    16.0000 </r>
       <r>   -41.3155    -0.0036    15.9993 </r>
       <r>   -41.1088    -0.8753    15.8183 </r>
       <r>   -40.9020    11.8271    18.2634 </r>
       <r>   -40.6953    46.6988    27.9178 </r>
       <r>   -40.4886     0.6192    28.0458 </r>
       <r>   -40.2818    -0.2215    28.0001 </r>
       <r>   -40.0751    -0.0003    28.0000 </r>
       <r>   -39.8683    -0.0000    28.0000 </r>
       <r>   -39.6616    -0.0000    28.0000 </r>
       <r>   -39.4549     0.0000    28.0000 </r>
       <r>   -39.2481     0.0000    28.0000 </r>
       <r>   -39.0414     0.0000    28.0000 </r>
       <r>   -38.8347     0.0000    28.0000 </r>
       <r>   -38.6279     0.0000    28.0000 </r>
       <r>   -38.4212     0.0000    28.0000 </r>
       <r>   -38.2144     0.0000    28.0000 </r>
       <r>   -38.0077     0.0000    28.0000 </r>
       <r>   -37.8010     0.0000    28.0000 </r>
       <r>   -37.5942     0.0000    28.0000 </r>
       <r>   -37.3875     0.0000    28.0000 </r>
       <r>   -37.1808     0.0000    28.0000 </r>
       <r>   -36.9740     0.0000    28.0000 </r>
       <r>   -36.7673     0.0000    28.0000 </r>
       <r>   -36.5605     0.0000    28.0000 </r>
       <r>   -36.3538     0.0000    28.0000 </r>
       <r>   -36.1471     0.0000    28.0000 </r>
       <r>   -35.9403     0.0000    28.0000 </r>
       <r>   -35.7336     0.0000    28.0000 </r>
       <r>   -35.5269     0.0000    28.0000 </r>
       <r>   -35.3201     0.0000    28.0000 </r>
       <r>   -35.1134     0.0000    28.0000 </r>
       <r>   -34.9066     0.0000    28.0000 </r>
       <r>   -34.6999     0.0000    28.0000 </r>
       <r>   -34.4932     0.0000    28.0000 </r>
       <r>   -34.2864     0.0000    28.0000 </r>
       <r>   -34.0797     0.0000    28.0000 </r>
       <r>   -33.8729     0.0000    28.0000 </r>
       <r>   -33.6662     0.0000    28.0000 </r>
       <r>   -33.4595     0.0000    28.0000 </r>
       <r>   -33.2527     0.0000    28.0000 </r>
       <r>   -33.0460     0.0000    28.0000 </r>
       <r>   -32.8393     0.0000    28.0000 </r>
       <r>   -32.6325     0.0000    28.0000 </r>
       <r>   -32.4258     0.0000    28.0000 </r>
       <r>   -32.2190     0.0000    28.0000 </r>
       <r>   -32.0123     0.0000    28.0000 </r>
       <r>   -31.8056     0.0000    28.0000 </r>
       <r>   -31.5988     0.0000    28.0000 </r>
       <r>   -31.3921     0.0000    28.0000 </r>
       <r>   -31.1854     0.0000    28.0000 </r>
       <r>   -30.9786     0.0000    28.0000 </r>
       <r>   -30.7719     0.0000    28.0000 </r>
       <r>   -30.5651     0.0000    28.0000 </r>
       <r>   -30.3584     0.0000    28.0000 </r>
       <r>   -30.1517     0.0000    28.0000 </r>
       <r>   -29.9449     0.0000    28.0000 </r>
       <r>   -29.7382     0.0000    28.0000 </r>
       <r>   -29.5315     0.0000    28.0000 </r>
       <r>   -29.3247     0.0000    28.0000 </r>
       <r>   -29.1180     0.0000    28.0000 </r>
       <r>   -28.9112     0.0000    28.0000 </r>
       <r>   -28.7045     0.0000    28.0000 </r>
       <r>   -28.4978     0.0000    28.0000 </r>
       <r>   -28.2910     0.0000    28.0000 </r>
       <r>   -28.0843     0.0000    28.0000 </r>
       <r>   -27.8776     0.0000    28.0000 </r>
       <r>   -27.6708     0.0000    28.0000 </r>
       <r>   -27.4641     0.0000    28.0000 </r>
       <r>   -27.2573     0.0000    28.0000 </r>
       <r>   -27.0506     0.0000    28.0000 </r>
       <r>   -26.8439     0.0000    28.0000 </r>
       <r>   -26.6371     0.0000    28.0000 </r>
       <r>   -26.4304     0.0000    28.0000 </r>
       <r>   -26.2236     0.0000    28.0000 </r>
       <r>   -26.0169     0.0000    28.0000 </r>
       <r>   -25.8102     0.0000    28.0000 </r>
       <r>   -25.6034     0.0000    28.0000 </r>
       <r>   -25.3967     0.0000    28.0000 </r>
       <r>   -25.1900     0.0000    28.0000 </r>
       <r>   -24.9832     0.0000    28.0000 </r>
       <r>   -24.7765    -0.0000    28.0000 </r>
       <r>   -24.5697    -0.0000    28.0000 </r>
       <r>   -24.3630    -0.0000    28.0000 </r>
       <r>   -24.1563    -0.0000    28.0000 </r>
       <r>   -23.9495    -0.0001    28.0000 </r>
       <r>   -23.7428    -0.0748    27.9845 </r>
       <r>   -23.5361    -0.3283    27.9167 </r>
       <r>   -23.3293    21.8682    32.4377 </r>
       <r>   -23.1226    40.2057    40.7497 </r>
       <r>   -22.9158    79.9030    57.2687 </r>
       <r>   -22.7091    60.0392    69.6810 </r>
       <r>   -22.5024    30.9387    76.0772 </r>
       <r>   -22.2956    -0.2537    76.0248 </r>
       <r>   -22.0889    -0.1198    76.0000 </r>
       <r>   -21.8822    -0.0001    76.0000 </r>
       <r>   -21.6754    -0.0000    76.0000 </r>
       <r>   -21.4687     0.0000    76.0000 </r>
       <r>   -21.2619     0.0000    76.0000 </r>
       <r>   -21.0552     0.0000    76.0000 </r>
       <r>   -20.8485     0.0000    76.0000 </r>
       <r>   -20.6417     0.0000    76.0000 </r>
       <r>   -20.4350    -0.0000    76.0000 </r>
       <r>   -20.2282    -0.0000    76.0000 </r>
       <r>   -20.0215    -0.0000    76.0000 </r>
       <r>   -19.8148    -0.0000    76.0000 </r>
       <r>   -19.6080    -0.0036    75.9993 </r>
       <r>   -19.4013    -0.3832    75.9200 </r>
       <r>   -19.1946     2.8769    76.5148 </r>
       <r>   -18.9878    52.1814    87.3027 </r>
       <r>   -18.7811   114.0033   110.8715 </r>
       <r>   -18.5743     6.2825   112.1703 </r>
       <r>   -18.3676    -0.8209   112.0006 </r>
       <r>   -18.1609    -0.0028   112.0000 </r>
       <r>   -17.9541    -0.0000   112.0000 </r>
       <r>   -17.7474    -0.0000   112.0000 </r>
       <r>   -17.5407     0.0000   112.0000 </r>
       <r>   -17.3339     0.0000   112.0000 </r>
       <r>   -17.1272     0.0000   112.0000 </r>
       <r>   -16.9204     0.0000   112.0000 </r>
       <r>   -16.7137     0.0000   112.0000 </r>
       <r>   -16.5070     0.0000   112.0000 </r>
       <r>   -16.3002     0.0000   112.0000 </r>
       <r>   -16.0935     0.0000   112.0000 </r>
       <r>   -15.8868     0.0000   112.0000 </r>
       <r>   -15.6800     0.0000   112.0000 </r>
       <r>   -15.4733     0.0000   112.0000 </r>
       <r>   -15.2665     0.0000   112.0000 </r>
       <r>   -15.0598     0.0000   112.0000 </r>
       <r>   -14.8531     0.0000   112.0000 </r>
       <r>   -14.6463     0.0000   112.0000 </r>
       <r>   -14.4396     0.0000   112.0000 </r>
       <r>   -14.2329     0.0000   112.0000 </r>
       <r>   -14.0261     0.0000   112.0000 </r>
       <r>   -13.8194     0.0000   112.0000 </r>
       <r>   -13.6126     0.0000   112.0000 </r>
       <r>   -13.4059     0.0000   112.0000 </r>
       <r>   -13.1992     0.0000   112.0000 </r>
       <r>   -12.9924     0.0000   112.0000 </r>
       <r>   -12.7857     0.0000   112.0000 </r>
       <r>   -12.5789     0.0000   112.0000 </r>
       <r>   -12.3722     0.0000   112.0000 </r>
       <r>   -12.1655     0.0000   112.0000 </r>
       <r>   -11.9587     0.0000   112.0000 </r>
       <r>   -11.7520     0.0000   112.0000 </r>
       <r>   -11.5453     0.0000   112.0000 </r>
       <r>   -11.3385     0.0000   112.0000 </r>
       <r>   -11.1318     0.0000   112.0000 </r>
       <r>   -10.9250     0.0000   112.0000 </r>
       <r>   -10.7183     0.0000   112.0000 </r>
       <r>   -10.5116     0.0000   112.0000 </r>
       <r>   -10.3048     0.0000   112.0000 </r>
       <r>   -10.0981     0.0000   112.0000 </r>
       <r>    -9.8914     0.0000   112.0000 </r>
       <r>    -9.6846     0.0000   112.0000 </r>
       <r>    -9.4779     0.0000   112.0000 </r>
       <r>    -9.2711     0.0000   112.0000 </r>
       <r>    -9.0644     0.0000   112.0000 </r>
       <r>    -8.8577     0.0000   112.0000 </r>
       <r>    -8.6509     0.0000   112.0000 </r>
       <r>    -8.4442     0.0000   112.0000 </r>
       <r>    -8.2375     0.0000   112.0000 </r>
       <r>    -8.0307     0.0000   112.0000 </r>
       <r>    -7.8240     0.0000   112.0000 </r>
       <r>    -7.6172     0.0000   112.0000 </r>
       <r>    -7.4105     0.0000   112.0000 </r>
       <r>    -7.2038     0.0000   112.0000 </r>
       <r>    -6.9970     0.0000   112.0000 </r>
       <r>    -6.7903     0.0000   112.0000 </r>
       <r>    -6.5836     0.0000   112.0000 </r>
       <r>    -6.3768     0.0000   112.0000 </r>
       <r>    -6.1701     0.0000   112.0000 </r>
       <r>    -5.9633     0.0000   112.0000 </r>
       <r>    -5.7566     0.0000   112.0000 </r>
       <r>    -5.5499     0.0000   112.0000 </r>
       <r>    -5.3431     0.0000   112.0000 </r>
       <r>    -5.1364     0.0000   112.0000 </r>
       <r>    -4.9296     0.0000   112.0000 </r>
       <r>    -4.7229     0.0000   112.0000 </r>
       <r>    -4.5162     0.0000   112.0000 </r>
       <r>    -4.3094     0.0000   112.0000 </r>
       <r>    -4.1027     0.0000   112.0000 </r>
       <r>    -3.8960     0.0000   112.0000 </r>
       <r>    -3.6892     0.0000   112.0000 </r>
       <r>    -3.4825     0.0000   112.0000 </r>
       <r>    -3.2757     0.0000   112.0000 </r>
       <r>    -3.0690     0.0000   112.0000 </r>
       <r>    -2.8623     0.0000   112.0000 </r>
       <r>    -2.6555     0.0000   112.0000 </r>
       <r>    -2.4488     0.0000   112.0000 </r>
       <r>    -2.2421     0.0000   112.0000 </r>
       <r>    -2.0353     0.0000   112.0000 </r>
       <r>    -1.8286     0.0000   112.0000 </r>
       <r>    -1.6218     0.0000   112.0000 </r>
       <r>    -1.4151     0.0000   112.0000 </r>
       <r>    -1.2084     0.0000   112.0000 </r>
       <r>    -1.0016    -0.0000   112.0000 </r>
       <r>    -0.7949    -0.0000   112.0000 </r>
       <r>    -0.5882    -0.0000   112.0000 </r>
       <r>    -0.3814    -0.0000   112.0000 </r>
       <r>    -0.1747    -0.0000   112.0000 </r>
       <r>     0.0321    -0.0036   111.9993 </r>
       <r>     0.2388     0.0307   112.0056 </r>
       <r>     0.4455     0.3894   112.0861 </r>
       <r>     0.6523     1.3305   112.3612 </r>
       <r>     0.8590     1.8066   112.7347 </r>
       <r>     1.0658     2.3992   113.2307 </r>
       <r>     1.2725     3.5415   113.9629 </r>
       <r>     1.4792     2.9406   114.5708 </r>
       <r>     1.6860     2.6868   115.1263 </r>
       <r>     1.8927     4.7771   116.1139 </r>
       <r>     2.0994     3.3932   116.8154 </r>
       <r>     2.3062     3.5893   117.5574 </r>
       <r>     2.5129     7.5306   119.1143 </r>
       <r>     2.7197     7.9593   120.7598 </r>
       <r>     2.9264     7.5268   122.3158 </r>
       <r>     3.1331     8.0483   123.9797 </r>
       <r>     3.3399     9.0940   125.8598 </r>
       <r>     3.5466    16.4366   129.2578 </r>
       <r>     3.7533    21.3447   133.6706 </r>
       <r>     3.9601    21.8754   138.1931 </r>
       <r>     4.1668    26.5401   143.6799 </r>
       <r>     4.3736    33.5395   150.6138 </r>
       <r>     4.5803    34.9818   157.8459 </r>
       <r>     4.7870    40.4624   166.2110 </r>
       <r>     4.9938    33.7528   173.1890 </r>
       <r>     5.2005    33.4261   180.0994 </r>
       <r>     5.4072    35.1234   187.3607 </r>
       <r>     5.6140    23.3067   192.1791 </r>
       <r>     5.8207    17.2769   195.7509 </r>
       <r>     6.0275    53.7798   206.8692 </r>
       <r>     6.2342    64.5123   220.2064 </r>
       <r>     6.4409    58.0699   232.2116 </r>
       <r>     6.6477    52.5033   243.0660 </r>
       <r>     6.8544    53.0048   254.0241 </r>
       <r>     7.0611    56.4796   265.7006 </r>
       <r>     7.2679    47.3445   275.4885 </r>
       <r>     7.4746    47.2339   285.2535 </r>
       <r>     7.6814    50.5069   295.6952 </r>
       <r>     7.8881    42.5014   304.4818 </r>
       <r>     8.0948    30.9351   310.8773 </r>
       <r>     8.3016    24.5420   315.9511 </r>
       <r>     8.5083    20.3507   320.1583 </r>
       <r>     8.7151    14.0174   323.0563 </r>
       <r>     8.9218    13.3985   325.8263 </r>
       <r>     9.1285    23.1616   330.6146 </r>
       <r>     9.3353    19.9618   334.7415 </r>
       <r>     9.5420     6.4268   336.0701 </r>
       <r>     9.7487    -0.3284   336.0023 </r>
       <r>     9.9555    -0.0110   336.0000 </r>
       <r>    10.1622    -0.0000   336.0000 </r>
       <r>    10.3690    -0.0000   336.0000 </r>
       <r>    10.5757     0.0000   336.0000 </r>
       <r>    10.7824     0.0000   336.0000 </r>
       <r>    10.9892     0.0000   336.0000 </r>
       <r>    11.1959     0.0000   336.0000 </r>
       <r>    11.4026     0.0000   336.0000 </r>
       <r>    11.6094     0.0000   336.0000 </r>
       <r>    11.8161     0.0000   336.0000 </r>
       <r>    12.0229     0.0000   336.0000 </r>
       <r>    12.2296     0.0000   336.0000 </r>
      </set>
     </set>
    </array>
   </total>
  </dos>
 </calculation>
 <structure name="finalpos" >
  <crystal>
   <varray name="basis" >
    <v>       6.90725594       0.00565426       0.01436503 </v>
    <v>       0.00861505      10.19546089      -0.00153595 </v>
    <v>       0.02146452      -0.00184424      10.17147969 </v>
   </varray>
   <i name="volume">    716.29897351 </i>
   <varray name="rec_basis" >
    <v>       0.14477603      -0.00012238      -0.00030554 </v>
    <v>      -0.00008033       0.09808293       0.00001795 </v>
    <v>      -0.00020448       0.00001498       0.09831455 </v>
   </varray>
  </crystal>
  <varray name="positions" >
   <v>       0.75143803       0.49870742       0.16821550 </v>
   <v>       0.26673706       0.83018053       0.83992381 </v>
   <v>       0.71792505       0.83327508       0.50234137 </v>
   <v>       0.73428764       0.49897904       0.83669961 </v>
   <v>       0.24639069       0.50801327       0.15317683 </v>
   <v>       0.01980609       0.68165621       0.33683657 </v>
   <v>       0.75542588       0.17527957       0.49846120 </v>
   <v>       0.46267901       0.33400953       0.33461902 </v>
   <v>       0.01672460       0.99444935       0.33392178 </v>
   <v>       0.75542153       0.18371709       0.17733236 </v>
   <v>       0.74970073       0.49342449       0.49492001 </v>
   <v>       0.99108939       0.99775175       0.00026246 </v>
   <v>       0.01196038       0.32301401       0.98166740 </v>
   <v>       0.00360553       0.66681169       0.66845020 </v>
   <v>       0.48654641       0.00052285       0.32111542 </v>
   <v>       0.99793866       0.99894418       0.66871006 </v>
   <v>       0.24439501       0.16984144       0.51174421 </v>
   <v>       0.03648465       0.32944384       0.34149836 </v>
   <v>       0.01210685       0.33358818       0.67162865 </v>
   <v>       0.26594145       0.50147416       0.83494758 </v>
   <v>       0.28412052       0.83231857       0.51075151 </v>
   <v>       0.26440070       0.82392976       0.15127679 </v>
   <v>       0.48528677       0.33447649       0.66750576 </v>
   <v>       0.48858133       0.31835209       0.99202328 </v>
   <v>       0.24776477       0.49942048       0.50734881 </v>
   <v>       0.47880652       0.66848036       0.33286913 </v>
   <v>       0.50907595       0.00305483       0.00247769 </v>
   <v>       0.48952988       0.65615178       0.66628161 </v>
   <v>       0.51156071       0.67299696       0.00308123 </v>
   <v>       0.73494482       0.82652694       0.83915698 </v>
   <v>       0.25053454       0.16718138       0.15875837 </v>
   <v>       0.98920742       0.67768471       0.00386424 </v>
   <v>       0.49850804       0.00883412       0.67473936 </v>
   <v>       0.73516973       0.17052226       0.82380595 </v>
   <v>       0.74172207       0.82629822       0.16483709 </v>
   <v>       0.26416961       0.16069836       0.82474778 </v>
  </varray>
 </structure>
</modeling>
