<?xml version="1.0" encoding="ISO-8859-1"?>
<modeling>
 <generator>
  <i name="program" type="string">vasp </i>
  <i name="version" type="string">5.4.1  </i>
  <i name="subversion" type="string">05Feb16 (build Jan 29 2020 16:04:39) complex                          parallel </i>
  <i name="platform" type="string">IFC91_ompi </i>
  <i name="date" type="string">2020 06 15 </i>
  <i name="time" type="string">13:22:47 </i>
 </generator>
 <incar>
  <i type="string" name="SYSTEM"> automatically generated by mexm</i>
  <i type="int" name="ISTART">     0</i>
  <i type="string" name="PREC">accurate               ! avoid wrap aro</i>
  <i type="string" name="ALGO"> Fast                   ! blocked Davids</i>
  <i type="int" name="ISPIN">     1</i>
  <i type="int" name="ICHARG">     2</i>
  <i type="int" name="NELM">    70</i>
  <i type="int" name="IBRION">     2</i>
  <i name="EDIFF">      0.00001000</i>
  <i name="EDIFFG">     -0.01000000</i>
  <i type="int" name="NSW">   300</i>
  <i type="int" name="ISIF">     3</i>
  <i type="int" name="ISYM">     1</i>
  <i name="ENCUT">    300.00000000</i>
  <i name="POTIM">      0.15000000</i>
  <i type="string" name="LREAL"> Auto                  ! unpublished met</i>
  <i type="int" name="ISMEAR">     1</i>
  <i name="SIGMA">      0.15000000</i>
  <i type="logical" name="LWAVE"> F  </i>
  <i type="logical" name="LCHARG"> F  </i>
  <i type="logical" name="LVTOT"> F  </i>
  <v type="int" name="KPOINT_BSE">    -1     0     0     0</v>
  <i type="int" name="NELM">    70</i>
 </incar>
 <kpoints>
  <generation param="Gamma">
   <v type="int" name="divisions">       3        3        3 </v>
   <v name="usershift">      0.00000000       0.00000000       0.00000000 </v>
   <v name="genvec1">      0.33333333      -0.00000000       0.00000000 </v>
   <v name="genvec2">     -0.00000000       0.33333333       0.00000000 </v>
   <v name="genvec3">     -0.00000000       0.00000000       0.33333333 </v>
   <v name="shift">      0.00000000       0.00000000       0.00000000 </v>
  </generation>
  <varray name="kpointlist" >
   <v>       0.00000000       0.00000000       0.00000000 </v>
   <v>       0.33333333      -0.00000000       0.00000000 </v>
   <v>       0.00000000       0.33333333      -0.00000000 </v>
   <v>       0.33333333       0.33333333       0.00000000 </v>
   <v>      -0.33333333       0.33333333      -0.00000000 </v>
   <v>       0.00000000       0.00000000       0.33333333 </v>
   <v>       0.33333333       0.00000000       0.33333333 </v>
   <v>      -0.33333333      -0.00000000       0.33333333 </v>
   <v>       0.00000000       0.33333333       0.33333333 </v>
   <v>       0.33333333       0.33333333       0.33333333 </v>
   <v>      -0.33333333       0.33333333       0.33333333 </v>
   <v>       0.00000000      -0.33333333       0.33333333 </v>
   <v>       0.33333333      -0.33333333       0.33333333 </v>
   <v>      -0.33333333      -0.33333333       0.33333333 </v>
  </varray>
  <varray name="weights" >
   <v>       0.03703704 </v>
   <v>       0.07407407 </v>
   <v>       0.07407407 </v>
   <v>       0.07407407 </v>
   <v>       0.07407407 </v>
   <v>       0.07407407 </v>
   <v>       0.07407407 </v>
   <v>       0.07407407 </v>
   <v>       0.07407407 </v>
   <v>       0.07407407 </v>
   <v>       0.07407407 </v>
   <v>       0.07407407 </v>
   <v>       0.07407407 </v>
   <v>       0.07407407 </v>
  </varray>
 </kpoints>
 <parameters>
  <separator name="general" >
   <i type="string" name="SYSTEM">automatically generated by mexm</i>
   <i type="logical" name="LCOMPAT"> F  </i>
  </separator>
  <separator name="electronic" >
   <i type="string" name="PREC">accura</i>
   <i name="ENMAX">    300.00000000</i>
   <i name="ENAUG">    461.25700000</i>
   <i name="EDIFF">      0.00001000</i>
   <i type="int" name="IALGO">    68</i>
   <i type="int" name="IWAVPR">    11</i>
   <i type="int" name="NBANDS">   192</i>
   <i name="NELECT">    316.00000000</i>
   <i type="int" name="TURBO">     0</i>
   <i type="int" name="IRESTART">     0</i>
   <i type="int" name="NREBOOT">     0</i>
   <i type="int" name="NMIN">     0</i>
   <i name="EREF">      0.00000000</i>
   <separator name="electronic smearing" >
    <i type="int" name="ISMEAR">     1</i>
    <i name="SIGMA">      0.15000000</i>
    <i name="KSPACING">      0.50000000</i>
    <i type="logical" name="KGAMMA"> T  </i>
   </separator>
   <separator name="electronic projectors" >
    <i type="logical" name="LREAL"> T  </i>
    <v name="ROPT">     -0.00025000     -0.00025000     -0.00025000     -0.00025000</v>
    <i type="int" name="LMAXPAW">  -100</i>
    <i type="int" name="LMAXMIX">     2</i>
    <i type="logical" name="NLSPLINE"> F  </i>
   </separator>
   <separator name="electronic startup" >
    <i type="int" name="ISTART">     0</i>
    <i type="int" name="ICHARG">     2</i>
    <i type="int" name="INIWAV">     1</i>
   </separator>
   <separator name="electronic spin" >
    <i type="int" name="ISPIN">     1</i>
    <i type="logical" name="LNONCOLLINEAR"> F  </i>
    <v name="MAGMOM">      1.00000000      1.00000000      1.00000000      1.00000000      1.00000000      1.00000000      1.00000000      1.00000000      1.00000000      1.00000000      1.00000000      1.00000000      1.00000000      1.00000000      1.00000000      1.00000000      1.00000000      1.00000000      1.00000000      1.00000000
      1.00000000      1.00000000      1.00000000      1.00000000      1.00000000      1.00000000      1.00000000      1.00000000      1.00000000      1.00000000      1.00000000      1.00000000      1.00000000      1.00000000      1.00000000      1.00000000</v>
    <i name="NUPDOWN">     -1.00000000</i>
    <i type="logical" name="LSORBIT"> F  </i>
    <v name="SAXIS">      0.00000000      0.00000000      1.00000000</v>
    <i type="logical" name="LSPIRAL"> F  </i>
    <v name="QSPIRAL">      0.00000000      0.00000000      0.00000000</v>
    <i type="logical" name="LZEROZ"> F  </i>
   </separator>
   <separator name="electronic exchange-correlation" >
    <i type="logical" name="LASPH"> F  </i>
    <i type="logical" name="LMETAGGA"> F  </i>
   </separator>
   <separator name="electronic convergence" >
    <i type="int" name="NELM">    70</i>
    <i type="int" name="NELMDL">    -5</i>
    <i type="int" name="NELMIN">     2</i>
    <i name="ENINI">    300.00000000</i>
    <separator name="electronic convergence detail" >
     <i type="logical" name="LDIAG"> T  </i>
     <i type="logical" name="LSUBROT"> F  </i>
     <i name="WEIMIN">      0.00100000</i>
     <i name="EBREAK">      0.00000001</i>
     <i name="DEPER">      0.30000000</i>
     <i type="int" name="NRMM">     4</i>
     <i name="TIME">      0.40000000</i>
    </separator>
   </separator>
   <separator name="electronic mixer" >
    <i name="AMIX">      0.40000000</i>
    <i name="BMIX">      1.00000000</i>
    <i name="AMIN">      0.10000000</i>
    <i name="AMIX_MAG">      1.60000000</i>
    <i name="BMIX_MAG">      1.00000000</i>
    <separator name="electronic mixer details" >
     <i type="int" name="IMIX">     4</i>
     <i type="logical" name="MIXFIRST"> F  </i>
     <i type="int" name="MAXMIX">   -45</i>
     <i name="WC">    100.00000000</i>
     <i type="int" name="INIMIX">     1</i>
     <i type="int" name="MIXPRE">     1</i>
     <i type="int" name="MREMOVE">     5</i>
    </separator>
   </separator>
   <separator name="electronic dipolcorrection" >
    <i type="logical" name="LDIPOL"> F  </i>
    <i type="logical" name="LMONO"> F  </i>
    <i type="int" name="IDIPOL">     0</i>
    <i name="EPSILON">      1.00000000</i>
    <v name="DIPOL">   -100.00000000   -100.00000000   -100.00000000</v>
    <i name="EFIELD">      0.00000000</i>
   </separator>
  </separator>
  <separator name="grids" >
   <i type="int" name="NGX">    40</i>
   <i type="int" name="NGY">    60</i>
   <i type="int" name="NGZ">    60</i>
   <i type="int" name="NGXF">    80</i>
   <i type="int" name="NGYF">   120</i>
   <i type="int" name="NGZF">   120</i>
   <i type="logical" name="ADDGRID"> F  </i>
  </separator>
  <separator name="ionic" >
   <i type="int" name="NSW">   300</i>
   <i type="int" name="IBRION">     2</i>
   <i type="int" name="ISIF">     3</i>
   <i name="PSTRESS">      0.00000000</i>
   <i name="EDIFFG">     -0.01000000</i>
   <i type="int" name="NFREE">     1</i>
   <i name="POTIM">      0.15000000</i>
   <i name="SMASS">     -3.00000000</i>
   <i name="SCALEE">      1.00000000</i>
  </separator>
  <separator name="ionic md" >
   <i name="TEBEG">      0.00010000</i>
   <i name="TEEND">      0.00010000</i>
   <i type="int" name="NBLOCK">     1</i>
   <i type="int" name="KBLOCK">   300</i>
   <i type="int" name="NPACO">   256</i>
   <i name="APACO">     16.00000000</i>
  </separator>
  <separator name="symmetry" >
   <i type="int" name="ISYM">     1</i>
   <i name="SYMPREC">      0.00001000</i>
  </separator>
  <separator name="dos" >
   <i type="logical" name="LORBIT"> F  </i>
   <v name="RWIGS">     -1.00000000     -1.00000000     -1.00000000     -1.00000000</v>
   <i type="int" name="NEDOS">   301</i>
   <i name="EMIN">     10.00000000</i>
   <i name="EMAX">    -10.00000000</i>
   <i name="EFERMI">      0.00000000</i>
  </separator>
  <separator name="writing" >
   <i type="int" name="NWRITE">     2</i>
   <i type="logical" name="LWAVE"> F  </i>
   <i type="logical" name="LCHARG"> F  </i>
   <i type="logical" name="LPARD"> F  </i>
   <i type="logical" name="LVTOT"> F  </i>
   <i type="logical" name="LVHAR"> F  </i>
   <i type="logical" name="LELF"> F  </i>
   <i type="logical" name="LOPTICS"> F  </i>
   <v name="STM">      0.00000000      0.00000000      0.00000000      0.00000000      0.00000000      0.00000000      0.00000000</v>
  </separator>
  <separator name="performance" >
   <i type="int" name="NPAR">     4</i>
   <i type="int" name="NSIM">     4</i>
   <i type="int" name="NBLK">    -1</i>
   <i type="logical" name="LPLANE"> T  </i>
   <i type="logical" name="LSCALAPACK"> T  </i>
   <i type="logical" name="LSCAAWARE"> F  </i>
   <i type="logical" name="LSCALU"> F  </i>
   <i type="logical" name="LASYNC"> F  </i>
   <i type="logical" name="LORBITALREAL"> F  </i>
  </separator>
  <separator name="miscellaneous" >
   <i type="int" name="IDIOT">     3</i>
   <i type="logical" name="LMUSIC"> F  </i>
   <v name="POMASS">    180.94800000    178.49000000     92.91000000     91.22400000</v>
   <v name="DARWINR">      0.00000000      0.00000000      0.00000000      0.00000000</v>
   <v name="DARWINV">      1.00000000      1.00000000      1.00000000      1.00000000</v>
   <i type="logical" name="LCORR"> T  </i>
  </separator>
  <i type="logical" name="GGA_COMPAT"> T  </i>
  <i type="logical" name="LBERRY"> F  </i>
  <i type="int" name="ICORELEVEL">     0</i>
  <i type="logical" name="LDAU"> F  </i>
  <i type="int" name="I_CONSTRAINED_M">     0</i>
  <separator name="electronic exchange-correlation" >
   <i type="string" name="GGA">--</i>
   <i type="int" name="VOSKOWN">     0</i>
   <i type="logical" name="LHFCALC"> F  </i>
   <i type="string" name="PRECFOCK"></i>
   <i type="logical" name="LSYMGRAD"> F  </i>
   <i type="logical" name="LHFONE"> F  </i>
   <i type="logical" name="LRHFCALC"> F  </i>
   <i type="logical" name="LTHOMAS"> F  </i>
   <i type="logical" name="LMODELHF"> F  </i>
   <i name="ENCUT4O">     -1.00000000</i>
   <i type="int" name="EXXOEP">     0</i>
   <i type="int" name="FOURORBIT">     0</i>
   <i name="AEXX">      0.00000000</i>
   <i name="HFALPHA">      0.00000000</i>
   <i name="MCALPHA">      0.00000000</i>
   <i name="ALDAX">      1.00000000</i>
   <i name="AGGAX">      1.00000000</i>
   <i name="ALDAC">      1.00000000</i>
   <i name="AGGAC">      1.00000000</i>
   <i type="int" name="NKREDX">     1</i>
   <i type="int" name="NKREDY">     1</i>
   <i type="int" name="NKREDZ">     1</i>
   <i type="logical" name="SHIFTRED"> F  </i>
   <i type="logical" name="ODDONLY"> F  </i>
   <i type="logical" name="EVENONLY"> F  </i>
   <i type="int" name="LMAXFOCK">     0</i>
   <i type="int" name="NMAXFOCKAE">     0</i>
   <i type="logical" name="LFOCKAEDFT"> F  </i>
   <i name="HFSCREEN">      0.00000000</i>
   <i name="HFSCREENC">      0.00000000</i>
   <i type="int" name="NBANDSGWLOW">     0</i>
  </separator>
  <separator name="vdW DFT" >
   <i type="logical" name="LUSE_VDW"> F  </i>
   <i name="Zab_VDW">     -0.84910000</i>
   <i name="PARAM1">      0.12340000</i>
   <i name="PARAM2">      1.00000000</i>
   <i name="PARAM3">      0.00000000</i>
  </separator>
  <separator name="model GW" >
   <i type="int" name="MODEL_GW">     0</i>
   <i name="MODEL_EPS0">     11.88890068</i>
   <i name="MODEL_ALPHA">      1.00000000</i>
  </separator>
  <separator name="linear response parameters" >
   <i type="logical" name="LEPSILON"> F  </i>
   <i type="logical" name="LRPA"> F  </i>
   <i type="logical" name="LNABLA"> F  </i>
   <i type="logical" name="LVEL"> F  </i>
   <i type="int" name="KINTER">     0</i>
   <i name="CSHIFT">      0.10000000</i>
   <i name="OMEGAMAX">     -1.00000000</i>
   <i name="DEG_THRESHOLD">      0.00200000</i>
  </separator>
  <separator name="orbital magnetization" >
   <i type="logical" name="NUCIND"> F  </i>
   <v name="MAGPOS">      0.00000000      0.00000000      0.00000000</v>
   <i type="logical" name="LNICSALL"> T  </i>
   <i type="logical" name="ORBITALMAG"> F  </i>
   <i type="logical" name="LMAGBLOCH"> F  </i>
   <i type="logical" name="LCHIMAG"> F  </i>
   <i type="logical" name="LGAUGE"> T  </i>
   <i type="int" name="MAGATOM">     0</i>
   <v name="MAGDIPOL">      0.00000000      0.00000000      0.00000000</v>
   <v name="AVECCONST">      0.00000000      0.00000000      0.00000000</v>
  </separator>
  <separator name="response functions" >
   <i type="logical" name="LADDER"> F  </i>
   <i type="logical" name="LFXC"> F  </i>
   <i type="logical" name="LHARTREE"> T  </i>
   <i type="int" name="IBSE">     0</i>
   <v type="int" name="KPOINT">    -1     0     0     0</v>
   <i type="logical" name="LTCTE"> F  </i>
   <i type="logical" name="LTETE"> F  </i>
   <i type="logical" name="LTRIPLET"> F  </i>
   <i type="logical" name="LFXCEPS"> F  </i>
   <i type="logical" name="LFXHEG"> F  </i>
   <i type="int" name="NATURALO">     0</i>
   <i type="logical" name="L2ORDER"> F  </i>
   <i type="logical" name="LUSEW"> F  </i>
   <i name="ENCUTGW">     -2.00000000</i>
   <i name="ENCUTGWSOFT">     -2.00000000</i>
   <i name="ENCUTLF">     -1.00000000</i>
   <i type="int" name="LMAXMP2">    -1</i>
   <i name="SCISSOR">      0.00000000</i>
   <i type="int" name="NOMEGA">     0</i>
   <i type="int" name="NOMEGAR">     0</i>
   <i type="int" name="NBANDSGW">    -1</i>
   <i type="int" name="NBANDSO">    -1</i>
   <i type="int" name="NBANDSV">    -1</i>
   <i type="int" name="NELM">    70</i>
   <i type="int" name="NELMHF">     1</i>
   <i type="int" name="DIM">     3</i>
   <i type="int" name="ANTIRES">     0</i>
   <i name="OMEGAMAX">    -30.00000000</i>
   <i name="OMEGAMIN">    -30.00000000</i>
   <i name="OMEGATL">   -200.00000000</i>
   <i type="int" name="OMEGAGRID">     0</i>
   <i name="CSHIFT">     -0.10000000</i>
   <i type="logical" name="SELFENERGY"> F  </i>
   <i type="logical" name="LSPECTRAL"> F  </i>
   <i type="logical" name="LSPECTRALGW"> F  </i>
   <i type="logical" name="LSINGLES"> F  </i>
   <i type="logical" name="LFERMIGW"> F  </i>
   <i type="logical" name="ODDONLYGW"> F  </i>
   <i type="logical" name="EVENONLYGW"> F  </i>
   <i type="int" name="NKREDLFX">     1</i>
   <i type="int" name="NKREDLFY">     1</i>
   <i type="int" name="NKREDLFZ">     1</i>
   <i type="int" name="MAXMEM">  1800</i>
   <i type="int" name="TELESCOPE">     0</i>
   <i type="int" name="TAUPAR">     1</i>
   <i type="int" name="OMEGAPAR">    -1</i>
   <i name="LAMBDA">      1.00000000</i>
  </separator>
  <separator name="External order field" >
   <i name="OFIELD_KAPPA">      0.00000000</i>
   <v name="OFIELD_K">      0.00000000      0.00000000      0.00000000</v>
   <i name="OFIELD_Q6_NEAR">      0.00000000</i>
   <i name="OFIELD_Q6_FAR">      0.00000000</i>
   <i name="OFIELD_A">      0.00000000</i>
  </separator>
 </parameters>
 <atominfo>
  <atoms>      36 </atoms>
  <types>       4 </types>
  <array name="atoms" >
   <dimension dim="1">ion</dimension>
   <field type="string">element</field>
   <field type="int">atomtype</field>
   <set>
    <rc><c>Ta</c><c>   1</c></rc>
    <rc><c>Ta</c><c>   1</c></rc>
    <rc><c>Ta</c><c>   1</c></rc>
    <rc><c>Ta</c><c>   1</c></rc>
    <rc><c>Ta</c><c>   1</c></rc>
    <rc><c>Ta</c><c>   1</c></rc>
    <rc><c>Ta</c><c>   1</c></rc>
    <rc><c>Ta</c><c>   1</c></rc>
    <rc><c>Ta</c><c>   1</c></rc>
    <rc><c>Ta</c><c>   1</c></rc>
    <rc><c>Hf</c><c>   2</c></rc>
    <rc><c>Hf</c><c>   2</c></rc>
    <rc><c>Hf</c><c>   2</c></rc>
    <rc><c>Hf</c><c>   2</c></rc>
    <rc><c>Hf</c><c>   2</c></rc>
    <rc><c>Hf</c><c>   2</c></rc>
    <rc><c>Hf</c><c>   2</c></rc>
    <rc><c>Nb</c><c>   3</c></rc>
    <rc><c>Nb</c><c>   3</c></rc>
    <rc><c>Nb</c><c>   3</c></rc>
    <rc><c>Nb</c><c>   3</c></rc>
    <rc><c>Nb</c><c>   3</c></rc>
    <rc><c>Nb</c><c>   3</c></rc>
    <rc><c>Nb</c><c>   3</c></rc>
    <rc><c>Nb</c><c>   3</c></rc>
    <rc><c>Nb</c><c>   3</c></rc>
    <rc><c>Nb</c><c>   3</c></rc>
    <rc><c>Zr</c><c>   4</c></rc>
    <rc><c>Zr</c><c>   4</c></rc>
    <rc><c>Zr</c><c>   4</c></rc>
    <rc><c>Zr</c><c>   4</c></rc>
    <rc><c>Zr</c><c>   4</c></rc>
    <rc><c>Zr</c><c>   4</c></rc>
    <rc><c>Zr</c><c>   4</c></rc>
    <rc><c>Zr</c><c>   4</c></rc>
    <rc><c>Zr</c><c>   4</c></rc>
   </set>
  </array>
  <array name="atomtypes" >
   <dimension dim="1">type</dimension>
   <field type="int">atomspertype</field>
   <field type="string">element</field>
   <field>mass</field>
   <field>valence</field>
   <field type="string">pseudopotential</field>
   <set>
    <rc><c>  10</c><c>Ta</c><c>    180.94800000</c><c>      5.00000000</c><c>  PAW_PBE Ta 17Jan2003                  </c></rc>
    <rc><c>   7</c><c>Hf</c><c>    178.49000000</c><c>      4.00000000</c><c>  PAW_PBE Hf 20Jan2003                  </c></rc>
    <rc><c>  10</c><c>Nb</c><c>     92.91000000</c><c>     13.00000000</c><c>  PAW_PBE Nb_sv 25May2007               </c></rc>
    <rc><c>   9</c><c>Zr</c><c>     91.22400000</c><c>     12.00000000</c><c>  PAW_PBE Zr_sv 04Jan2005               </c></rc>
   </set>
  </array>
 </atominfo>
 <structure name="initialpos" >
  <crystal>
   <varray name="basis" >
    <v>       6.87619079      -0.01854654      -0.01353827 </v>
    <v>      -0.02640312      10.18427337       0.01138332 </v>
    <v>      -0.02007795       0.01116384      10.18638841 </v>
   </varray>
   <i name="volume">    713.33404083 </i>
   <varray name="rec_basis" >
    <v>       0.14543094       0.00037672       0.00028624 </v>
    <v>       0.00026463       0.09819141      -0.00010709 </v>
    <v>       0.00019299      -0.00010923       0.09817072 </v>
   </varray>
  </crystal>
  <varray name="positions" >
   <v>       0.26189800       0.84206600       0.48993400 </v>
   <v>       0.74187900       0.83641600       0.49505600 </v>
   <v>       0.25847100       0.50890000       0.17510300 </v>
   <v>       0.73672500       0.49656600       0.51035200 </v>
   <v>       0.99236700       0.02765200       0.00174200 </v>
   <v>       0.75689100       0.49583700       0.81667800 </v>
   <v>       0.27118000       0.16369400       0.49208200 </v>
   <v>       0.26968800       0.15345200       0.82966700 </v>
   <v>       0.49566700       0.98972700       0.65777400 </v>
   <v>       0.50639900       0.33433200       0.33636500 </v>
   <v>       0.01089700       0.66032200       0.35464100 </v>
   <v>       0.24760600       0.83408500       0.17008500 </v>
   <v>       0.00816400       0.32839100       0.65855200 </v>
   <v>       0.72405600       0.16809500       0.82505900 </v>
   <v>       0.49414900       0.67191800       0.66588800 </v>
   <v>       0.00249300       0.00975700       0.65189000 </v>
   <v>       0.99638800       0.33528800       0.34313600 </v>
   <v>       0.01181900       0.64580000       0.99561900 </v>
   <v>       0.49564900       0.66456100       0.34665700 </v>
   <v>       0.26650800       0.49214400       0.50097300 </v>
   <v>       0.51108700       0.00135000       0.33780100 </v>
   <v>       0.99615400       0.00091100       0.34553600 </v>
   <v>       0.00030500       0.66002100       0.65786700 </v>
   <v>       0.23249800       0.50379900       0.82611100 </v>
   <v>       0.48687000       0.33768200       0.66247300 </v>
   <v>       0.74161600       0.15917100       0.17017100 </v>
   <v>       0.73153800       0.16450300       0.49876800 </v>
   <v>       0.76861400       0.83331100       0.83855400 </v>
   <v>       0.75960200       0.83553100       0.16866500 </v>
   <v>       0.48986600       0.33886600       0.00070600 </v>
   <v>       0.22895000       0.84243800       0.84234200 </v>
   <v>       0.74403000       0.51298500       0.17156800 </v>
   <v>       0.00286300       0.33074900       0.99773000 </v>
   <v>       0.48921600       0.65862600       0.98592700 </v>
   <v>       0.25898600       0.15690800       0.17617900 </v>
   <v>       0.50890700       0.00415500       0.00235300 </v>
  </varray>
 </structure>
 <calculation>
  <scstep>
   <time name="dav">    1.09    1.11</time>
   <time name="total">    1.15    1.65</time>
   <energy>
    <i name="alphaZ">   1696.62821198 </i>
    <i name="ewald"> -22563.58204504 </i>
    <i name="hartreedc">  -7259.35585825 </i>
    <i name="XCdc">    -19.17615544 </i>
    <i name="pawpsdc">  24132.13293311 </i>
    <i name="pawaedc"> -22618.91587328 </i>
    <i name="eentropy">      0.00086429 </i>
    <i name="bandstr">   -155.96917761 </i>
    <i name="atom">  28946.46341293 </i>
    <i name="e_fr_energy">   2158.22631269 </i>
    <i name="e_wo_entrp">   2158.22544840 </i>
    <i name="e_0_energy">   2158.22602459 </i>
   </energy>
  </scstep>
  <scstep>
   <time name="dav">    1.08    1.13</time>
   <time name="total">    1.08    1.34</time>
   <energy>
    <i name="e_fr_energy">    -61.83803942 </i>
    <i name="e_wo_entrp">    -61.84332451 </i>
    <i name="e_0_energy">    -61.83980112 </i>
   </energy>
  </scstep>
  <scstep>
   <time name="dav">    1.51    1.53</time>
   <time name="total">    1.51    1.59</time>
   <energy>
    <i name="e_fr_energy">   -342.28701472 </i>
    <i name="e_wo_entrp">   -342.30052038 </i>
    <i name="e_0_energy">   -342.29151660 </i>
   </energy>
  </scstep>
  <scstep>
   <time name="dav">    1.47    1.48</time>
   <time name="total">    1.47    1.53</time>
   <energy>
    <i name="e_fr_energy">   -374.99414424 </i>
    <i name="e_wo_entrp">   -375.00532999 </i>
    <i name="e_0_energy">   -374.99787282 </i>
   </energy>
  </scstep>
  <scstep>
   <time name="dav">    1.43    1.44</time>
   <time name="total">    1.47    1.51</time>
   <energy>
    <i name="e_fr_energy">   -378.26073235 </i>
    <i name="e_wo_entrp">   -378.27287608 </i>
    <i name="e_0_energy">   -378.26478026 </i>
   </energy>
  </scstep>
  <scstep>
   <time name="diag">    0.08    0.08</time>
   <time name="diis">    0.85    0.86</time>
   <time name="orth">    0.01    0.01</time>
   <time name="total">    1.04    1.09</time>
   <energy>
    <i name="e_fr_energy">   -367.52664496 </i>
    <i name="e_wo_entrp">   -367.54458498 </i>
    <i name="e_0_energy">   -367.53262497 </i>
   </energy>
  </scstep>
  <scstep>
   <time name="diag">    0.10    0.10</time>
   <time name="diis">    0.91    0.92</time>
   <time name="orth">    0.01    0.02</time>
   <time name="total">    1.13    1.21</time>
   <energy>
    <i name="e_fr_energy">   -367.36051483 </i>
    <i name="e_wo_entrp">   -367.35801846 </i>
    <i name="e_0_energy">   -367.35968271 </i>
   </energy>
  </scstep>
  <scstep>
   <time name="diag">    0.09    0.10</time>
   <time name="diis">    0.85    0.85</time>
   <time name="orth">    0.02    0.02</time>
   <time name="total">    1.03    1.15</time>
   <energy>
    <i name="e_fr_energy">   -363.78904616 </i>
    <i name="e_wo_entrp">   -363.81312753 </i>
    <i name="e_0_energy">   -363.79707329 </i>
   </energy>
  </scstep>
  <scstep>
   <time name="diag">    0.08    0.09</time>
   <time name="diis">    0.91    0.91</time>
   <time name="orth">    0.01    0.01</time>
   <time name="total">    1.07    1.12</time>
   <energy>
    <i name="e_fr_energy">   -363.52942039 </i>
    <i name="e_wo_entrp">   -363.54438362 </i>
    <i name="e_0_energy">   -363.53440813 </i>
   </energy>
  </scstep>
  <scstep>
   <time name="diag">    0.08    0.08</time>
   <time name="diis">    0.83    0.83</time>
   <time name="orth">    0.01    0.01</time>
   <time name="total">    1.00    1.05</time>
   <energy>
    <i name="e_fr_energy">   -363.48134990 </i>
    <i name="e_wo_entrp">   -363.49952469 </i>
    <i name="e_0_energy">   -363.48740816 </i>
   </energy>
  </scstep>
  <scstep>
   <time name="diag">    0.08    0.08</time>
   <time name="diis">    0.83    0.84</time>
   <time name="orth">    0.01    0.01</time>
   <time name="total">    1.00    1.05</time>
   <energy>
    <i name="e_fr_energy">   -363.43292380 </i>
    <i name="e_wo_entrp">   -363.44917991 </i>
    <i name="e_0_energy">   -363.43834251 </i>
   </energy>
  </scstep>
  <scstep>
   <time name="diag">    0.16    0.16</time>
   <time name="diis">    0.84    0.85</time>
   <time name="orth">    0.01    0.01</time>
   <time name="total">    1.09    1.14</time>
   <energy>
    <i name="e_fr_energy">   -363.43077964 </i>
    <i name="e_wo_entrp">   -363.44714217 </i>
    <i name="e_0_energy">   -363.43623382 </i>
   </energy>
  </scstep>
  <scstep>
   <time name="diag">    0.09    0.09</time>
   <time name="diis">    0.84    0.84</time>
   <time name="orth">    0.01    0.01</time>
   <time name="total">    1.01    1.06</time>
   <energy>
    <i name="e_fr_energy">   -363.42888093 </i>
    <i name="e_wo_entrp">   -363.44549587 </i>
    <i name="e_0_energy">   -363.43441924 </i>
   </energy>
  </scstep>
  <scstep>
   <time name="diag">    0.08    0.08</time>
   <time name="diis">    0.85    0.86</time>
   <time name="orth">    0.01    0.01</time>
   <time name="total">    1.02    1.06</time>
   <energy>
    <i name="e_fr_energy">   -363.42866908 </i>
    <i name="e_wo_entrp">   -363.44532665 </i>
    <i name="e_0_energy">   -363.43422160 </i>
   </energy>
  </scstep>
  <scstep>
   <time name="diag">    0.09    0.09</time>
   <time name="diis">    0.90    0.91</time>
   <time name="orth">    0.01    0.01</time>
   <time name="total">    1.07    1.12</time>
   <energy>
    <i name="e_fr_energy">   -363.42869524 </i>
    <i name="e_wo_entrp">   -363.44537234 </i>
    <i name="e_0_energy">   -363.43425428 </i>
   </energy>
  </scstep>
  <scstep>
   <time name="diag">    0.08    0.08</time>
   <time name="diis">    0.88    0.89</time>
   <time name="orth">    0.01    0.03</time>
   <time name="total">    1.05    1.11</time>
   <energy>
    <i name="e_fr_energy">   -363.42873322 </i>
    <i name="e_wo_entrp">   -363.44534314 </i>
    <i name="e_0_energy">   -363.43426986 </i>
   </energy>
  </scstep>
  <scstep>
   <time name="diag">    0.08    0.14</time>
   <time name="diis">    0.66    0.67</time>
   <time name="orth">    0.01    0.01</time>
   <time name="total">    0.82    0.96</time>
   <energy>
    <i name="e_fr_energy">   -363.42873849 </i>
    <i name="e_wo_entrp">   -363.44537165 </i>
    <i name="e_0_energy">   -363.43428287 </i>
   </energy>
  </scstep>
  <scstep>
   <time name="diag">    0.08    0.09</time>
   <time name="diis">    0.63    0.63</time>
   <time name="orth">    0.01    0.01</time>
   <time name="total">    0.91    0.96</time>
   <energy>
    <i name="e_fr_energy">   -363.42874594 </i>
    <i name="e_wo_entrp">   -363.44537057 </i>
    <i name="e_0_energy">   -363.43428748 </i>
   </energy>
  </scstep>
  <scstep>
   <time name="diag">    0.14    0.14</time>
   <time name="diis">    0.57    0.58</time>
   <time name="orth">    0.01    0.01</time>
   <time name="total">    0.76    0.81</time>
   <energy>
    <i name="alphaZ">   1696.62821198 </i>
    <i name="ewald"> -22563.58204504 </i>
    <i name="hartreedc">  -6996.78963328 </i>
    <i name="XCdc">    -22.36648423 </i>
    <i name="pawpsdc">  37365.36642917 </i>
    <i name="pawaedc"> -35825.54268655 </i>
    <i name="eentropy">      0.01663008 </i>
    <i name="bandstr">  -2963.62258224 </i>
    <i name="atom">  28946.46341293 </i>
    <i name="e_fr_energy">   -363.42874717 </i>
    <i name="e_wo_entrp">   -363.44537725 </i>
    <i name="e_0_energy">   -363.43429053 </i>
   </energy>
  </scstep>
  <structure>
   <crystal>
    <varray name="basis" >
     <v>       6.87619079      -0.01854654      -0.01353827 </v>
     <v>      -0.02640312      10.18427337       0.01138332 </v>
     <v>      -0.02007795       0.01116384      10.18638841 </v>
    </varray>
    <i name="volume">    713.33404083 </i>
    <varray name="rec_basis" >
     <v>       0.14543094       0.00037672       0.00028624 </v>
     <v>       0.00026463       0.09819141      -0.00010709 </v>
     <v>       0.00019299      -0.00010923       0.09817072 </v>
    </varray>
   </crystal>
   <varray name="positions" >
    <v>       0.26189800       0.84206600       0.48993400 </v>
    <v>       0.74187900       0.83641600       0.49505600 </v>
    <v>       0.25847100       0.50890000       0.17510300 </v>
    <v>       0.73672500       0.49656600       0.51035200 </v>
    <v>       0.99236700       0.02765200       0.00174200 </v>
    <v>       0.75689100       0.49583700       0.81667800 </v>
    <v>       0.27118000       0.16369400       0.49208200 </v>
    <v>       0.26968800       0.15345200       0.82966700 </v>
    <v>       0.49566700       0.98972700       0.65777400 </v>
    <v>       0.50639900       0.33433200       0.33636500 </v>
    <v>       0.01089700       0.66032200       0.35464100 </v>
    <v>       0.24760600       0.83408500       0.17008500 </v>
    <v>       0.00816400       0.32839100       0.65855200 </v>
    <v>       0.72405600       0.16809500       0.82505900 </v>
    <v>       0.49414900       0.67191800       0.66588800 </v>
    <v>       0.00249300       0.00975700       0.65189000 </v>
    <v>       0.99638800       0.33528800       0.34313600 </v>
    <v>       0.01181900       0.64580000       0.99561900 </v>
    <v>       0.49564900       0.66456100       0.34665700 </v>
    <v>       0.26650800       0.49214400       0.50097300 </v>
    <v>       0.51108700       0.00135000       0.33780100 </v>
    <v>       0.99615400       0.00091100       0.34553600 </v>
    <v>       0.00030500       0.66002100       0.65786700 </v>
    <v>       0.23249800       0.50379900       0.82611100 </v>
    <v>       0.48687000       0.33768200       0.66247300 </v>
    <v>       0.74161600       0.15917100       0.17017100 </v>
    <v>       0.73153800       0.16450300       0.49876800 </v>
    <v>       0.76861400       0.83331100       0.83855400 </v>
    <v>       0.75960200       0.83553100       0.16866500 </v>
    <v>       0.48986600       0.33886600       0.00070600 </v>
    <v>       0.22895000       0.84243800       0.84234200 </v>
    <v>       0.74403000       0.51298500       0.17156800 </v>
    <v>       0.00286300       0.33074900       0.99773000 </v>
    <v>       0.48921600       0.65862600       0.98592700 </v>
    <v>       0.25898600       0.15690800       0.17617900 </v>
    <v>       0.50890700       0.00415500       0.00235300 </v>
   </varray>
  </structure>
  <varray name="forces" >
   <v>      -0.03490538      -0.00149755       0.01257765 </v>
   <v>       0.04670819      -0.03067120      -0.02334778 </v>
   <v>      -0.03231135       0.00688904       0.00452977 </v>
   <v>       0.00442669       0.01227392       0.00370284 </v>
   <v>       0.06587736      -0.11327670      -0.00235833 </v>
   <v>       0.02923789      -0.00787068      -0.02800751 </v>
   <v>      -0.02059513       0.02734071      -0.01574391 </v>
   <v>      -0.35932827       0.31666269      -0.52070183 </v>
   <v>      -0.01969118       0.03704693      -0.08086031 </v>
   <v>       0.00143054      -0.03785988      -0.03000011 </v>
   <v>       0.00284695       0.02120561      -0.03397139 </v>
   <v>      -0.30056113      -0.26266320       0.26709016 </v>
   <v>       0.01263416      -0.00377141       0.04309124 </v>
   <v>       0.16494705       0.31064537      -0.36931025 </v>
   <v>       0.00301705       0.02984380       0.02670879 </v>
   <v>      -0.00282780      -0.00047780       0.03623790 </v>
   <v>      -0.00414887      -0.01075961      -0.02583919 </v>
   <v>      -0.01785999       0.00575636      -0.00426348 </v>
   <v>       0.00526847       0.02154013      -0.00494532 </v>
   <v>       0.00299469      -0.00599628       0.00102665 </v>
   <v>      -0.01015588      -0.01262469       0.04730469 </v>
   <v>      -0.01505550       0.00751759      -0.03146153 </v>
   <v>      -0.00400574       0.00587292       0.02012309 </v>
   <v>      -0.01711266       0.01214313      -0.01874441 </v>
   <v>       0.00723421      -0.02929369       0.02177074 </v>
   <v>       0.31830905       0.35695701       0.46494053 </v>
   <v>       0.02786802       0.04395635       0.01637872 </v>
   <v>       0.34782946      -0.24793841      -0.22574497 </v>
   <v>       0.26084624      -0.17502253       0.21854253 </v>
   <v>      -0.01522762       0.10978961      -0.00240338 </v>
   <v>      -0.32092178      -0.15856598      -0.19159050 </v>
   <v>       0.01180431       0.00202623       0.00277211 </v>
   <v>      -0.00667832      -0.03088873       0.01844346 </v>
   <v>       0.00073497      -0.10298830       0.03097297 </v>
   <v>      -0.23051975       0.20063652       0.33558279 </v>
   <v>       0.09789102      -0.29593728       0.03749758 </v>
  </varray>
  <varray name="stress" >
   <v>       8.23193446      -0.18618606       0.53208274 </v>
   <v>      -0.18618603       6.83077360      -0.85012817 </v>
   <v>       0.53208277      -0.85012810       8.39950978 </v>
  </varray>
  <energy>
   <i name="e_fr_energy">   -363.42874717 </i>
   <i name="e_wo_entrp">   -363.43429053 </i>
   <i name="e_0_energy">      0.01663008 </i>
  </energy>
  <time name="totalsc">   22.43   24.40</time>
 </calculation>
 <calculation>
  <scstep>
   <time name="dav">    1.14    1.15</time>
   <time name="total">    1.23    1.43</time>
   <energy>
    <i name="alphaZ">   1689.52315734 </i>
    <i name="ewald"> -22536.33573482 </i>
    <i name="hartreedc">  -6982.97574517 </i>
    <i name="XCdc">    -23.77624661 </i>
    <i name="pawpsdc">  37365.63260120 </i>
    <i name="pawaedc"> -35825.80010910 </i>
    <i name="eentropy">      0.01812289 </i>
    <i name="bandstr">  -2996.25554044 </i>
    <i name="atom">  28946.46341293 </i>
    <i name="e_fr_energy">   -363.50608178 </i>
    <i name="e_wo_entrp">   -363.52420468 </i>
    <i name="e_0_energy">   -363.51212275 </i>
   </energy>
  </scstep>
  <scstep>
   <time name="diag">    0.08    0.08</time>
   <time name="diis">    0.79    0.79</time>
   <time name="orth">    0.01    0.01</time>
   <time name="total">    0.96    1.01</time>
   <energy>
    <i name="e_fr_energy">   -363.48802547 </i>
    <i name="e_wo_entrp">   -363.50595966 </i>
    <i name="e_0_energy">   -363.49400353 </i>
   </energy>
  </scstep>
  <scstep>
   <time name="diag">    0.08    0.08</time>
   <time name="diis">    0.85    0.85</time>
   <time name="orth">    0.01    0.01</time>
   <time name="total">    1.01    1.09</time>
   <energy>
    <i name="e_fr_energy">   -363.47710577 </i>
    <i name="e_wo_entrp">   -363.49553390 </i>
    <i name="e_0_energy">   -363.48324848 </i>
   </energy>
  </scstep>
  <scstep>
   <time name="diag">    0.13    0.14</time>
   <time name="diis">    0.87    0.88</time>
   <time name="orth">    0.01    0.01</time>
   <time name="total">    1.10    1.17</time>
   <energy>
    <i name="e_fr_energy">   -363.47064424 </i>
    <i name="e_wo_entrp">   -363.48842892 </i>
    <i name="e_0_energy">   -363.47657246 </i>
   </energy>
  </scstep>
  <scstep>
   <time name="diag">    0.12    0.12</time>
   <time name="diis">    0.85    0.86</time>
   <time name="orth">    0.01    0.01</time>
   <time name="total">    1.06    1.10</time>
   <energy>
    <i name="e_fr_energy">   -363.46971287 </i>
    <i name="e_wo_entrp">   -363.48802328 </i>
    <i name="e_0_energy">   -363.47581634 </i>
   </energy>
  </scstep>
  <scstep>
   <time name="diag">    0.12    0.12</time>
   <time name="diis">    0.92    0.93</time>
   <time name="orth">    0.01    0.01</time>
   <time name="total">    1.12    1.17</time>
   <energy>
    <i name="e_fr_energy">   -363.46974061 </i>
    <i name="e_wo_entrp">   -363.48780274 </i>
    <i name="e_0_energy">   -363.47576132 </i>
   </energy>
  </scstep>
  <scstep>
   <time name="diag">    0.12    0.12</time>
   <time name="diis">    0.94    0.94</time>
   <time name="orth">    0.01    0.01</time>
   <time name="total">    1.14    1.19</time>
   <energy>
    <i name="e_fr_energy">   -363.46973396 </i>
    <i name="e_wo_entrp">   -363.48790755 </i>
    <i name="e_0_energy">   -363.47579182 </i>
   </energy>
  </scstep>
  <scstep>
   <time name="diag">    0.12    0.14</time>
   <time name="diis">    0.76    0.76</time>
   <time name="orth">    0.01    0.01</time>
   <time name="total">    0.96    1.03</time>
   <energy>
    <i name="e_fr_energy">   -363.46977714 </i>
    <i name="e_wo_entrp">   -363.48790864 </i>
    <i name="e_0_energy">   -363.47582098 </i>
   </energy>
  </scstep>
  <scstep>
   <time name="diag">    0.08    0.08</time>
   <time name="diis">    0.63    0.66</time>
   <time name="orth">    0.02    0.02</time>
   <time name="total">    0.80    0.88</time>
   <energy>
    <i name="e_fr_energy">   -363.46979951 </i>
    <i name="e_wo_entrp">   -363.48796373 </i>
    <i name="e_0_energy">   -363.47585425 </i>
   </energy>
  </scstep>
  <scstep>
   <time name="diag">    0.08    0.09</time>
   <time name="diis">    0.59    0.59</time>
   <time name="orth">    0.02    0.02</time>
   <time name="total">    0.75    1.01</time>
   <energy>
    <i name="e_fr_energy">   -363.46981317 </i>
    <i name="e_wo_entrp">   -363.48794497 </i>
    <i name="e_0_energy">   -363.47585710 </i>
   </energy>
  </scstep>
  <scstep>
   <time name="diag">    0.08    0.08</time>
   <time name="diis">    0.53    0.54</time>
   <time name="orth">    0.01    0.01</time>
   <time name="total">    0.67    0.71</time>
   <energy>
    <i name="alphaZ">   1689.52315734 </i>
    <i name="ewald"> -22536.33573482 </i>
    <i name="hartreedc">  -7001.94615834 </i>
    <i name="XCdc">    -22.92516896 </i>
    <i name="pawpsdc">  37148.11157463 </i>
    <i name="pawaedc"> -35608.63264242 </i>
    <i name="eentropy">      0.01814750 </i>
    <i name="bandstr">  -2977.74639901 </i>
    <i name="atom">  28946.46341293 </i>
    <i name="e_fr_energy">   -363.46981116 </i>
    <i name="e_wo_entrp">   -363.48795866 </i>
    <i name="e_0_energy">   -363.47586033 </i>
   </energy>
  </scstep>
  <structure>
   <crystal>
    <varray name="basis" >
     <v>       6.88632182      -0.01879631      -0.01290093 </v>
     <v>      -0.02678034      10.19672432       0.00984823 </v>
     <v>      -0.01913777       0.00962814      10.20169943 </v>
    </varray>
    <i name="volume">    716.33386792 </i>
    <varray name="rec_basis" >
     <v>       0.14521695       0.00038113       0.00027206 </v>
     <v>       0.00026752       0.09807150      -0.00009206 </v>
     <v>       0.00018338      -0.00009419       0.09802332 </v>
    </varray>
   </crystal>
   <varray name="positions" >
    <v>       0.26182458       0.84206372       0.48995178 </v>
    <v>       0.74197705       0.83637263       0.49502301 </v>
    <v>       0.25840305       0.50890966       0.17510933 </v>
    <v>       0.73673440       0.49658345       0.51035725 </v>
    <v>       0.99250503       0.02749128       0.00173901 </v>
    <v>       0.75695238       0.49582597       0.81663830 </v>
    <v>       0.27113674       0.16373280       0.49205953 </v>
    <v>       0.26893126       0.15390144       0.82892568 </v>
    <v>       0.49562542       0.98977970       0.65765900 </v>
    <v>       0.50640168       0.33427825       0.33632244 </v>
    <v>       0.01090297       0.66035220       0.35459271 </v>
    <v>       0.24697306       0.83371016       0.17046406 </v>
    <v>       0.00819075       0.32838562       0.65861327 </v>
    <v>       0.72440334       0.16853766       0.82453425 </v>
    <v>       0.49415562       0.67196038       0.66592591 </v>
    <v>       0.00248720       0.00975625       0.65194148 </v>
    <v>       0.99637910       0.33527273       0.34309929 </v>
    <v>       0.01178142       0.64580812       0.99561288 </v>
    <v>       0.49566019       0.66459164       0.34664995 </v>
    <v>       0.26651427       0.49213549       0.50097448 </v>
    <v>       0.51106575       0.00133195       0.33786820 </v>
    <v>       0.99612222       0.00092167       0.34549125 </v>
    <v>       0.00029668       0.66002930       0.65789557 </v>
    <v>       0.23246197       0.50381622       0.82608430 </v>
    <v>       0.48688516       0.33764036       0.66250400 </v>
    <v>       0.74228985       0.15967877       0.17083191 </v>
    <v>       0.73159696       0.16456555       0.49879128 </v>
    <v>       0.76934382       0.83296034       0.83823462 </v>
    <v>       0.76015098       0.83528294       0.16897651 </v>
    <v>       0.48983454       0.33902197       0.00070237 </v>
    <v>       0.22827287       0.84221173       0.84206914 </v>
    <v>       0.74405487       0.51298792       0.17157197 </v>
    <v>       0.00284885       0.33070505       0.99775623 </v>
    <v>       0.48921711       0.65847960       0.98597117 </v>
    <v>       0.25850329       0.15719172       0.17665484 </v>
    <v>       0.50911158       0.00373476       0.00240702 </v>
   </varray>
  </structure>
  <varray name="forces" >
   <v>      -0.01455304       0.00578655       0.00616309 </v>
   <v>       0.02550381      -0.01875144      -0.02603521 </v>
   <v>      -0.02196147       0.01390941       0.00278112 </v>
   <v>      -0.01428869       0.01512681       0.01195975 </v>
   <v>       0.04734099      -0.08129926      -0.00154592 </v>
   <v>       0.02640287      -0.00516593      -0.02573649 </v>
   <v>      -0.00575228       0.01612183      -0.01753307 </v>
   <v>      -0.28419884       0.26164679      -0.44700665 </v>
   <v>      -0.02479357       0.03927096      -0.08149998 </v>
   <v>       0.00406607      -0.02918413      -0.01130411 </v>
   <v>       0.00704047       0.00239457      -0.00832720 </v>
   <v>      -0.26400142      -0.22922274       0.23086273 </v>
   <v>       0.01773444       0.01095373       0.01647518 </v>
   <v>       0.11817113       0.27640586      -0.32195122 </v>
   <v>       0.00495538       0.02150555       0.01420882 </v>
   <v>      -0.00256229       0.00483063       0.00824706 </v>
   <v>      -0.00402011       0.00341446      -0.00631109 </v>
   <v>      -0.00660890      -0.01260228      -0.00511653 </v>
   <v>      -0.00335787       0.01164376       0.01654987 </v>
   <v>       0.02305566      -0.00440404       0.00049387 </v>
   <v>      -0.00331759       0.00091814       0.05232902 </v>
   <v>      -0.01651205       0.00987560      -0.00262785 </v>
   <v>      -0.00353494      -0.01339695       0.00406233 </v>
   <v>      -0.01942802       0.01738639      -0.01456591 </v>
   <v>       0.00012007      -0.01466279      -0.00057108 </v>
   <v>       0.27484237       0.29543431       0.40781128 </v>
   <v>       0.00865400       0.02770683       0.01205328 </v>
   <v>       0.31801188      -0.22843973      -0.19849914 </v>
   <v>       0.23772536      -0.15164292       0.19277374 </v>
   <v>      -0.02073191       0.09159657      -0.00965112 </v>
   <v>      -0.28911044      -0.14094437      -0.16655610 </v>
   <v>       0.00245826       0.00065920       0.00501086 </v>
   <v>      -0.00537806      -0.02939691       0.01379710 </v>
   <v>      -0.00374978      -0.08780780       0.02679041 </v>
   <v>      -0.19508110       0.16559878       0.29972438 </v>
   <v>       0.08685959      -0.24526546       0.02274478 </v>
  </varray>
  <varray name="stress" >
   <v>       2.09052327      -0.17941311       0.43974594 </v>
   <v>      -0.17941311       0.75734393      -0.71738270 </v>
   <v>       0.43974596      -0.71738270       2.28005033 </v>
  </varray>
  <energy>
   <i name="e_fr_energy">   -363.46981116 </i>
   <i name="e_wo_entrp">   -363.47586033 </i>
   <i name="e_0_energy">      0.01814750 </i>
  </energy>
  <time name="totalsc">   12.52   13.66</time>
 </calculation>
 <calculation>
  <scstep>
   <time name="dav">    1.09    1.10</time>
   <time name="total">    1.16    1.37</time>
   <energy>
    <i name="alphaZ">   1675.23073207 </i>
    <i name="ewald"> -22480.58160230 </i>
    <i name="hartreedc">  -6974.56316224 </i>
    <i name="XCdc">    -25.77404687 </i>
    <i name="pawpsdc">  37148.69816625 </i>
    <i name="pawaedc"> -35609.26031748 </i>
    <i name="eentropy">      0.02060733 </i>
    <i name="bandstr">  -3043.88870335 </i>
    <i name="atom">  28946.46341293 </i>
    <i name="e_fr_energy">   -363.65491366 </i>
    <i name="e_wo_entrp">   -363.67552099 </i>
    <i name="e_0_energy">   -363.66178277 </i>
   </energy>
  </scstep>
  <scstep>
   <time name="diag">    0.08    0.09</time>
   <time name="diis">    0.79    0.79</time>
   <time name="orth">    0.01    0.01</time>
   <time name="total">    0.96    1.00</time>
   <energy>
    <i name="e_fr_energy">   -363.57959810 </i>
    <i name="e_wo_entrp">   -363.60015783 </i>
    <i name="e_0_energy">   -363.58645134 </i>
   </energy>
  </scstep>
  <scstep>
   <time name="diag">    0.09    0.09</time>
   <time name="diis">    0.85    0.85</time>
   <time name="orth">    0.01    0.01</time>
   <time name="total">    1.02    1.10</time>
   <energy>
    <i name="e_fr_energy">   -363.53294088 </i>
    <i name="e_wo_entrp">   -363.55431805 </i>
    <i name="e_0_energy">   -363.54006660 </i>
   </energy>
  </scstep>
  <scstep>
   <time name="diag">    0.09    0.09</time>
   <time name="diis">    0.92    0.92</time>
   <time name="orth">    0.01    0.01</time>
   <time name="total">    1.09    1.14</time>
   <energy>
    <i name="e_fr_energy">   -363.50692345 </i>
    <i name="e_wo_entrp">   -363.52713772 </i>
    <i name="e_0_energy">   -363.51366154 </i>
   </energy>
  </scstep>
  <scstep>
   <time name="diag">    0.08    0.08</time>
   <time name="diis">    0.84    0.84</time>
   <time name="orth">    0.01    0.01</time>
   <time name="total">    1.01    1.05</time>
   <energy>
    <i name="e_fr_energy">   -363.50297287 </i>
    <i name="e_wo_entrp">   -363.52428503 </i>
    <i name="e_0_energy">   -363.51007693 </i>
   </energy>
  </scstep>
  <scstep>
   <time name="diag">    0.09    0.09</time>
   <time name="diis">    0.93    0.93</time>
   <time name="orth">    0.01    0.01</time>
   <time name="total">    1.10    1.15</time>
   <energy>
    <i name="e_fr_energy">   -363.50318217 </i>
    <i name="e_wo_entrp">   -363.52399519 </i>
    <i name="e_0_energy">   -363.51011984 </i>
   </energy>
  </scstep>
  <scstep>
   <time name="diag">    0.09    0.09</time>
   <time name="diis">    0.93    0.93</time>
   <time name="orth">    0.01    0.01</time>
   <time name="total">    1.10    1.17</time>
   <energy>
    <i name="e_fr_energy">   -363.50327512 </i>
    <i name="e_wo_entrp">   -363.52430330 </i>
    <i name="e_0_energy">   -363.51028451 </i>
   </energy>
  </scstep>
  <scstep>
   <time name="diag">    0.08    0.08</time>
   <time name="diis">    0.92    0.93</time>
   <time name="orth">    0.01    0.01</time>
   <time name="total">    1.09    1.14</time>
   <energy>
    <i name="e_fr_energy">   -363.50351518 </i>
    <i name="e_wo_entrp">   -363.52445737 </i>
    <i name="e_0_energy">   -363.51049591 </i>
   </energy>
  </scstep>
  <scstep>
   <time name="diag">    0.08    0.08</time>
   <time name="diis">    0.78    0.92</time>
   <time name="orth">    0.03    0.03</time>
   <time name="total">    0.97    1.15</time>
   <energy>
    <i name="e_fr_energy">   -363.50363034 </i>
    <i name="e_wo_entrp">   -363.52464096 </i>
    <i name="e_0_energy">   -363.51063388 </i>
   </energy>
  </scstep>
  <scstep>
   <time name="diag">    0.08    0.08</time>
   <time name="diis">    0.81    0.82</time>
   <time name="orth">    0.01    0.01</time>
   <time name="total">    0.98    1.02</time>
   <energy>
    <i name="e_fr_energy">   -363.50372493 </i>
    <i name="e_wo_entrp">   -363.52466274 </i>
    <i name="e_0_energy">   -363.51070420 </i>
   </energy>
  </scstep>
  <scstep>
   <time name="diag">    0.11    0.11</time>
   <time name="diis">    0.64    0.75</time>
   <time name="orth">    0.01    0.02</time>
   <time name="total">    0.84    0.99</time>
   <energy>
    <i name="e_fr_energy">   -363.50375523 </i>
    <i name="e_wo_entrp">   -363.52473655 </i>
    <i name="e_0_energy">   -363.51074900 </i>
   </energy>
  </scstep>
  <scstep>
   <time name="diag">    0.08    0.08</time>
   <time name="diis">    0.66    0.66</time>
   <time name="orth">    0.01    0.01</time>
   <time name="total">    0.82    0.85</time>
   <energy>
    <i name="e_fr_energy">   -363.50375443 </i>
    <i name="e_wo_entrp">   -363.52472326 </i>
    <i name="e_0_energy">   -363.51074404 </i>
   </energy>
  </scstep>
  <scstep>
   <time name="diag">    0.08    0.08</time>
   <time name="diis">    0.57    0.57</time>
   <time name="orth">    0.01    0.01</time>
   <time name="total">    0.72    0.76</time>
   <energy>
    <i name="alphaZ">   1675.23073207 </i>
    <i name="ewald"> -22480.58160230 </i>
    <i name="hartreedc">  -7012.75860085 </i>
    <i name="XCdc">    -24.05975488 </i>
    <i name="pawpsdc">  36721.81472932 </i>
    <i name="pawaedc"> -35183.33675332 </i>
    <i name="eentropy">      0.02097672 </i>
    <i name="bandstr">  -3006.29689417 </i>
    <i name="atom">  28946.46341293 </i>
    <i name="e_fr_energy">   -363.50375449 </i>
    <i name="e_wo_entrp">   -363.52473121 </i>
    <i name="e_0_energy">   -363.51074673 </i>
   </energy>
  </scstep>
  <structure>
   <crystal>
    <varray name="basis" >
     <v>       6.90687521      -0.01930303      -0.01160791 </v>
     <v>      -0.02754563      10.22198428       0.00673389 </v>
     <v>      -0.01723038       0.00651257      10.23276177 </v>
    </varray>
    <i name="volume">    722.44535339 </i>
    <varray name="rec_basis" >
     <v>       0.14478477       0.00039000       0.00024355 </v>
     <v>       0.00027330       0.09782914      -0.00006180 </v>
     <v>       0.00016406      -0.00006394       0.09772564 </v>
    </varray>
   </crystal>
   <varray name="positions" >
    <v>       0.26167583       0.84205910       0.48998779 </v>
    <v>       0.74217567       0.83628474       0.49495614 </v>
    <v>       0.25826539       0.50892923       0.17512218 </v>
    <v>       0.73675344       0.49661882       0.51036790 </v>
    <v>       0.99278463       0.02716562       0.00173289 </v>
    <v>       0.75707673       0.49580361       0.81655787 </v>
    <v>       0.27104910       0.16381141       0.49201403 </v>
    <v>       0.26739853       0.15481187       0.82742422 </v>
    <v>       0.49554123       0.98988644       0.65742606 </v>
    <v>       0.50640712       0.33416932       0.33623621 </v>
    <v>       0.01091507       0.66041338       0.35449489 </v>
    <v>       0.24569071       0.83295073       0.17123189 </v>
    <v>       0.00824492       0.32837474       0.65873737 </v>
    <v>       0.72510718       0.16943448       0.82347135 </v>
    <v>       0.49416904       0.67204627       0.66600271 </v>
    <v>       0.00247542       0.00975476       0.65204576 </v>
    <v>       0.99636108       0.33524179       0.34302493 </v>
    <v>       0.01170530       0.64582457       0.99560050 </v>
    <v>       0.49568285       0.66465372       0.34663569 </v>
    <v>       0.26652698       0.49211824       0.50097746 </v>
    <v>       0.51102268       0.00129539       0.33800433 </v>
    <v>       0.99605786       0.00094329       0.34540059 </v>
    <v>       0.00027983       0.66004613       0.65795345 </v>
    <v>       0.23238899       0.50385110       0.82603023 </v>
    <v>       0.48691585       0.33755601       0.66256678 </v>
    <v>       0.74365477       0.16070789       0.17217081 </v>
    <v>       0.73171641       0.16469230       0.49883845 </v>
    <v>       0.77082233       0.83224973       0.83758746 </v>
    <v>       0.76126297       0.83478041       0.16960740 </v>
    <v>       0.48977082       0.33933800       0.00069507 </v>
    <v>       0.22690121       0.84175313       0.84151643 </v>
    <v>       0.74410524       0.51299384       0.17158000 </v>
    <v>       0.00282018       0.33061600       0.99780937 </v>
    <v>       0.48921934       0.65818296       0.98606060 </v>
    <v>       0.25752532       0.15776675       0.17761889 </v>
    <v>       0.50952596       0.00288326       0.00251629 </v>
   </varray>
  </structure>
  <varray name="forces" >
   <v>       0.02551727       0.02053066      -0.00748049 </v>
   <v>      -0.01658095       0.00450092      -0.03180025 </v>
   <v>      -0.00058981       0.02705697      -0.00039611 </v>
   <v>      -0.05153450       0.02056434       0.02876102 </v>
   <v>       0.01259402      -0.02260174       0.00164642 </v>
   <v>       0.01966951      -0.00068188      -0.02181783 </v>
   <v>       0.02298704      -0.00625259      -0.01990228 </v>
   <v>      -0.13965026       0.15925616      -0.30726224 </v>
   <v>      -0.03572466       0.04452131      -0.08586986 </v>
   <v>       0.00889508      -0.01327162       0.02608181 </v>
   <v>       0.01454850      -0.03616285       0.04410986 </v>
   <v>      -0.19322267      -0.16325906       0.16108596 </v>
   <v>       0.02600610       0.04055647      -0.03848058 </v>
   <v>       0.02979376       0.21199315      -0.23143584 </v>
   <v>       0.00946571       0.00424007      -0.01098504 </v>
   <v>      -0.00213970       0.01688944      -0.04782411 </v>
   <v>      -0.00405133       0.03084283       0.03370148 </v>
   <v>       0.01571309      -0.04999232      -0.00950936 </v>
   <v>      -0.02086499      -0.00889124       0.06020840 </v>
   <v>       0.06388319      -0.00123235       0.00096159 </v>
   <v>       0.01061029       0.02939817       0.06382673 </v>
   <v>      -0.01975949       0.01677706       0.05403499 </v>
   <v>      -0.00183106      -0.05326757      -0.02653343 </v>
   <v>      -0.02404576       0.02814784      -0.00667887 </v>
   <v>      -0.01459936       0.01398894      -0.04578944 </v>
   <v>       0.19375788       0.17635133       0.30319275 </v>
   <v>      -0.02785019      -0.00498703       0.00243742 </v>
   <v>       0.25890639      -0.19041124      -0.14569835 </v>
   <v>       0.19107692      -0.10434245       0.14325615 </v>
   <v>      -0.03087075       0.05592623      -0.02437730 </v>
   <v>      -0.22819789      -0.10923170      -0.11864585 </v>
   <v>      -0.01684385      -0.00356265       0.00907195 </v>
   <v>      -0.00287407      -0.02562829       0.00328406 </v>
   <v>      -0.01252155      -0.05913102       0.01710926 </v>
   <v>      -0.12792306       0.09827573       0.23188690 </v>
   <v>       0.06825115      -0.14691003      -0.00416953 </v>
  </varray>
  <varray name="stress" >
   <v>     -10.09276499      -0.16945821       0.24677481 </v>
   <v>      -0.16945823     -11.24954150      -0.42735836 </v>
   <v>       0.24677482      -0.42735834      -9.89966704 </v>
  </varray>
  <energy>
   <i name="e_fr_energy">   -363.50375449 </i>
   <i name="e_wo_entrp">   -363.51074673 </i>
   <i name="e_0_energy">      0.02097672 </i>
  </energy>
  <time name="totalsc">   14.60   15.81</time>
 </calculation>
 <calculation>
  <scstep>
   <time name="dav">    1.16    1.16</time>
   <time name="total">    1.23    1.47</time>
   <energy>
    <i name="alphaZ">   1678.84972953 </i>
    <i name="ewald"> -22501.04471927 </i>
    <i name="hartreedc">  -7013.64345870 </i>
    <i name="XCdc">    -23.35736920 </i>
    <i name="pawpsdc">  36721.15959901 </i>
    <i name="pawaedc"> -35182.71530824 </i>
    <i name="eentropy">      0.02204996 </i>
    <i name="bandstr">  -2989.27621447 </i>
    <i name="atom">  28946.46341293 </i>
    <i name="e_fr_energy">   -363.54227846 </i>
    <i name="e_wo_entrp">   -363.56432842 </i>
    <i name="e_0_energy">   -363.54962844 </i>
   </energy>
  </scstep>
  <scstep>
   <time name="diag">    0.08    0.08</time>
   <time name="diis">    0.73    0.78</time>
   <time name="orth">    0.01    0.01</time>
   <time name="total">    0.90    0.98</time>
   <energy>
    <i name="e_fr_energy">   -363.54799993 </i>
    <i name="e_wo_entrp">   -363.56900135 </i>
    <i name="e_0_energy">   -363.55500040 </i>
   </energy>
  </scstep>
  <scstep>
   <time name="diag">    0.09    0.09</time>
   <time name="diis">    0.84    0.85</time>
   <time name="orth">    0.01    0.01</time>
   <time name="total">    1.02    1.09</time>
   <energy>
    <i name="e_fr_energy">   -363.53953169 </i>
    <i name="e_wo_entrp">   -363.56114221 </i>
    <i name="e_0_energy">   -363.54673520 </i>
   </energy>
  </scstep>
  <scstep>
   <time name="diag">    0.09    0.09</time>
   <time name="diis">    0.87    0.95</time>
   <time name="orth">    0.01    0.01</time>
   <time name="total">    1.04    1.21</time>
   <energy>
    <i name="e_fr_energy">   -363.53775654 </i>
    <i name="e_wo_entrp">   -363.55936856 </i>
    <i name="e_0_energy">   -363.54496055 </i>
   </energy>
  </scstep>
  <scstep>
   <time name="diag">    0.08    0.08</time>
   <time name="diis">    0.85    0.86</time>
   <time name="orth">    0.01    0.01</time>
   <time name="total">    1.01    1.10</time>
   <energy>
    <i name="e_fr_energy">   -363.53725211 </i>
    <i name="e_wo_entrp">   -363.55879491 </i>
    <i name="e_0_energy">   -363.54443304 </i>
   </energy>
  </scstep>
  <scstep>
   <time name="diag">    0.08    0.08</time>
   <time name="diis">    0.89    0.89</time>
   <time name="orth">    0.03    0.03</time>
   <time name="total">    1.07    1.12</time>
   <energy>
    <i name="e_fr_energy">   -363.53729001 </i>
    <i name="e_wo_entrp">   -363.55884120 </i>
    <i name="e_0_energy">   -363.54447374 </i>
   </energy>
  </scstep>
  <scstep>
   <time name="diag">    0.08    0.08</time>
   <time name="diis">    0.88    0.88</time>
   <time name="orth">    0.01    0.01</time>
   <time name="total">    1.08    1.14</time>
   <energy>
    <i name="e_fr_energy">   -363.53730227 </i>
    <i name="e_wo_entrp">   -363.55885850 </i>
    <i name="e_0_energy">   -363.54448768 </i>
   </energy>
  </scstep>
  <scstep>
   <time name="diag">    0.08    0.08</time>
   <time name="diis">    0.69    0.79</time>
   <time name="orth">    0.02    0.02</time>
   <time name="total">    0.85    1.03</time>
   <energy>
    <i name="e_fr_energy">   -363.53733835 </i>
    <i name="e_wo_entrp">   -363.55888309 </i>
    <i name="e_0_energy">   -363.54451993 </i>
   </energy>
  </scstep>
  <scstep>
   <time name="diag">    0.08    0.08</time>
   <time name="diis">    0.60    0.60</time>
   <time name="orth">    0.01    0.01</time>
   <time name="total">    0.76    0.81</time>
   <energy>
    <i name="e_fr_energy">   -363.53735515 </i>
    <i name="e_wo_entrp">   -363.55891917 </i>
    <i name="e_0_energy">   -363.54454315 </i>
   </energy>
  </scstep>
  <scstep>
   <time name="diag">    0.08    0.08</time>
   <time name="diis">    0.49    0.50</time>
   <time name="orth">    0.01    0.01</time>
   <time name="total">    0.65    0.71</time>
   <energy>
    <i name="e_fr_energy">   -363.53736784 </i>
    <i name="e_wo_entrp">   -363.55891923 </i>
    <i name="e_0_energy">   -363.54455164 </i>
   </energy>
  </scstep>
  <scstep>
   <time name="diag">    0.08    0.08</time>
   <time name="diis">    0.40    0.40</time>
   <time name="orth">    0.01    0.01</time>
   <time name="total">    0.53    0.58</time>
   <energy>
    <i name="alphaZ">   1678.84972953 </i>
    <i name="ewald"> -22501.04471927 </i>
    <i name="hartreedc">  -7003.15424646 </i>
    <i name="XCdc">    -23.81500068 </i>
    <i name="pawpsdc">  36799.74579469 </i>
    <i name="pawaedc"> -35261.29552013 </i>
    <i name="eentropy">      0.02155609 </i>
    <i name="bandstr">  -2999.30838292 </i>
    <i name="atom">  28946.46341293 </i>
    <i name="e_fr_energy">   -363.53737623 </i>
    <i name="e_wo_entrp">   -363.55893232 </i>
    <i name="e_0_energy">   -363.54456159 </i>
   </energy>
  </scstep>
  <structure>
   <crystal>
    <varray name="basis" >
     <v>       6.90267298      -0.01965602      -0.01080822 </v>
     <v>      -0.02808220      10.21180277       0.00480204 </v>
     <v>      -0.01605037       0.00458002      10.22710346 </v>
    </varray>
    <i name="volume">    720.88802050 </i>
    <varray name="rec_basis" >
     <v>       0.14487290       0.00039829       0.00022718 </v>
     <v>       0.00027879       0.09792669      -0.00004342 </v>
     <v>       0.00015297      -0.00004556       0.09777966 </v>
    </varray>
   </crystal>
   <varray name="positions" >
    <v>       0.26167093       0.84208488       0.48999127 </v>
    <v>       0.74221680       0.83625797       0.49488879 </v>
    <v>       0.25821311       0.50897263       0.17512642 </v>
    <v>       0.73665894       0.49665923       0.51041008 </v>
    <v>       0.99291349       0.02701418       0.00173281 </v>
    <v>       0.75716182       0.49579446       0.81649887 </v>
    <v>       0.27106179       0.16383244       0.49197062 </v>
    <v>       0.26655200       0.15536314       0.82645525 </v>
    <v>       0.49543929       0.98998554       0.65722475 </v>
    <v>       0.50642673       0.33411103       0.33623890 </v>
    <v>       0.01094828       0.66038791       0.35451735 </v>
    <v>       0.24483112       0.83244912       0.17173223 </v>
    <v>       0.00831654       0.32842497       0.65873228 </v>
    <v>       0.72542860       0.17005171       0.82276700 </v>
    <v>       0.49419271       0.67208398       0.66601669 </v>
    <v>       0.00246673       0.00977679       0.65202081 </v>
    <v>       0.99634666       0.33527137       0.34304214 </v>
    <v>       0.01170770       0.64576403       0.99558330 </v>
    <v>       0.49565023       0.66466485       0.34671062 </v>
    <v>       0.26665790       0.49211041       0.50098000 </v>
    <v>       0.51102796       0.00132100       0.33814011 </v>
    <v>       0.99599514       0.00097360       0.34543883 </v>
    <v>       0.00026956       0.65998132       0.65793967 </v>
    <v>       0.23231445       0.50390158       0.82600112 </v>
    <v>       0.48689835       0.33754325       0.66252904 </v>
    <v>       0.74454756       0.16132729       0.17307387 </v>
    <v>       0.73170585       0.16473276       0.49885921 </v>
    <v>       0.77188280       0.83173190       0.83715284 </v>
    <v>       0.76205428       0.83445462       0.17003369 </v>
    <v>       0.48968634       0.33953028       0.00065977 </v>
    <v>       0.22593878       0.84143566       0.84115205 </v>
    <v>       0.74409074       0.51299122       0.17159506 </v>
    <v>       0.00280369       0.33054861       0.99783353 </v>
    <v>       0.48919516       0.65799348       0.98611670 </v>
    <v>       0.25690970       0.15811155       0.17828674 </v>
    <v>       0.50981423       0.00237025       0.00255157 </v>
   </varray>
  </structure>
  <varray name="forces" >
   <v>       0.02395559       0.01231030      -0.00046092 </v>
   <v>      -0.02048101       0.00437878      -0.02093408 </v>
   <v>       0.00123822       0.01917340      -0.00702677 </v>
   <v>      -0.05440420       0.02458634       0.02520613 </v>
   <v>       0.00172995      -0.01609488       0.00575831 </v>
   <v>       0.00055936      -0.00528854       0.00139119 </v>
   <v>       0.01152225      -0.01073367      -0.00826419 </v>
   <v>      -0.07568145       0.11972541      -0.22402667 </v>
   <v>      -0.02781059       0.04406079      -0.05702424 </v>
   <v>       0.01399291       0.00155030       0.02335762 </v>
   <v>       0.00826935      -0.05561655       0.05588619 </v>
   <v>      -0.14632213      -0.12343377       0.10750925 </v>
   <v>       0.02345694       0.04924218      -0.05977303 </v>
   <v>      -0.00166398       0.17653470      -0.17291070 </v>
   <v>       0.00704361       0.00439109      -0.00980940 </v>
   <v>      -0.01069469       0.01391230      -0.05756945 </v>
   <v>      -0.00225919       0.04258885       0.03849159 </v>
   <v>       0.00832306      -0.04469948      -0.00171391 </v>
   <v>      -0.01549992      -0.01514137       0.05423734 </v>
   <v>       0.06401123       0.01212939       0.00349344 </v>
   <v>       0.01390994       0.03188748       0.04030953 </v>
   <v>      -0.01796146       0.02309574       0.05534507 </v>
   <v>       0.00684498      -0.05182035      -0.03936445 </v>
   <v>      -0.00491236       0.01524425       0.00285848 </v>
   <v>      -0.01992205       0.02108121      -0.05244765 </v>
   <v>       0.14562687       0.12552483       0.22880955 </v>
   <v>      -0.02186107      -0.01310659       0.00481967 </v>
   <v>       0.20408944      -0.16343110      -0.11122885 </v>
   <v>       0.15377436      -0.08380167       0.10364514 </v>
   <v>      -0.03073643       0.03425689      -0.02497541 </v>
   <v>      -0.17506695      -0.09331986      -0.08817874 </v>
   <v>      -0.01840068      -0.01262788       0.00205077 </v>
   <v>      -0.00612070      -0.02314966       0.00787300 </v>
   <v>      -0.00092572      -0.02194021       0.01782352 </v>
   <v>      -0.09250669       0.07025501       0.17474669 </v>
   <v>       0.05488319      -0.11172369      -0.01790402 </v>
  </varray>
  <varray name="stress" >
   <v>      -7.22627366      -0.15044653       0.10990962 </v>
   <v>      -0.15044651      -8.11207052      -0.25446227 </v>
   <v>       0.10990964      -0.25446221      -6.98027346 </v>
  </varray>
  <energy>
   <i name="e_fr_energy">   -363.53737623 </i>
   <i name="e_wo_entrp">   -363.54456159 </i>
   <i name="e_0_energy">      0.02155609 </i>
  </energy>
  <time name="totalsc">   11.85   13.13</time>
 </calculation>
 <calculation>
  <scstep>
   <time name="dav">    1.15    1.16</time>
   <time name="total">    1.23    1.52</time>
   <energy>
    <i name="alphaZ">   1689.24825036 </i>
    <i name="ewald"> -22557.42698544 </i>
    <i name="hartreedc">  -7007.78874083 </i>
    <i name="XCdc">    -21.78815605 </i>
    <i name="pawpsdc">  36799.69325851 </i>
    <i name="pawaedc"> -35261.22452212 </i>
    <i name="eentropy">      0.02304036 </i>
    <i name="bandstr">  -2950.81683311 </i>
    <i name="atom">  28946.46341293 </i>
    <i name="e_fr_energy">   -363.61727540 </i>
    <i name="e_wo_entrp">   -363.64031576 </i>
    <i name="e_0_energy">   -363.62495552 </i>
   </energy>
  </scstep>
  <scstep>
   <time name="diag">    0.09    0.09</time>
   <time name="diis">    0.78    0.78</time>
   <time name="orth">    0.01    0.01</time>
   <time name="total">    0.94    1.01</time>
   <energy>
    <i name="e_fr_energy">   -363.66375427 </i>
    <i name="e_wo_entrp">   -363.68340684 </i>
    <i name="e_0_energy">   -363.67030513 </i>
   </energy>
  </scstep>
  <scstep>
   <time name="diag">    0.08    0.08</time>
   <time name="diis">    0.83    0.84</time>
   <time name="orth">    0.01    0.01</time>
   <time name="total">    1.00    1.03</time>
   <energy>
    <i name="e_fr_energy">   -363.59434582 </i>
    <i name="e_wo_entrp">   -363.61622399 </i>
    <i name="e_0_energy">   -363.60163854 </i>
   </energy>
  </scstep>
  <scstep>
   <time name="diag">    0.09    0.09</time>
   <time name="diis">    0.85    0.86</time>
   <time name="orth">    0.01    0.01</time>
   <time name="total">    1.03    1.11</time>
   <energy>
    <i name="e_fr_energy">   -363.58053974 </i>
    <i name="e_wo_entrp">   -363.60240026 </i>
    <i name="e_0_energy">   -363.58782658 </i>
   </energy>
  </scstep>
  <scstep>
   <time name="diag">    0.15    0.15</time>
   <time name="diis">    0.84    0.85</time>
   <time name="orth">    0.01    0.01</time>
   <time name="total">    1.07    1.12</time>
   <energy>
    <i name="e_fr_energy">   -363.57658851 </i>
    <i name="e_wo_entrp">   -363.59830795 </i>
    <i name="e_0_energy">   -363.58382833 </i>
   </energy>
  </scstep>
  <scstep>
   <time name="diag">    0.09    0.09</time>
   <time name="diis">    0.93    0.94</time>
   <time name="orth">    0.01    0.01</time>
   <time name="total">    1.11    1.16</time>
   <energy>
    <i name="e_fr_energy">   -363.57690685 </i>
    <i name="e_wo_entrp">   -363.59864405 </i>
    <i name="e_0_energy">   -363.58415258 </i>
   </energy>
  </scstep>
  <scstep>
   <time name="diag">    0.08    0.08</time>
   <time name="diis">    0.99    0.99</time>
   <time name="orth">    0.01    0.01</time>
   <time name="total">    1.15    1.20</time>
   <energy>
    <i name="e_fr_energy">   -363.57694056 </i>
    <i name="e_wo_entrp">   -363.59867684 </i>
    <i name="e_0_energy">   -363.58418599 </i>
   </energy>
  </scstep>
  <scstep>
   <time name="diag">    0.08    0.08</time>
   <time name="diis">    0.95    0.96</time>
   <time name="orth">    0.01    0.01</time>
   <time name="total">    1.12    1.17</time>
   <energy>
    <i name="e_fr_energy">   -363.57720264 </i>
    <i name="e_wo_entrp">   -363.59892433 </i>
    <i name="e_0_energy">   -363.58444320 </i>
   </energy>
  </scstep>
  <scstep>
   <time name="diag">    0.09    0.09</time>
   <time name="diis">    0.92    0.92</time>
   <time name="orth">    0.01    0.01</time>
   <time name="total">    1.09    1.14</time>
   <energy>
    <i name="e_fr_energy">   -363.57728387 </i>
    <i name="e_wo_entrp">   -363.59906212 </i>
    <i name="e_0_energy">   -363.58454328 </i>
   </energy>
  </scstep>
  <scstep>
   <time name="diag">    0.08    0.08</time>
   <time name="diis">    0.94    0.94</time>
   <time name="orth">    0.01    0.01</time>
   <time name="total">    1.10    1.15</time>
   <energy>
    <i name="e_fr_energy">   -363.57736261 </i>
    <i name="e_wo_entrp">   -363.59908037 </i>
    <i name="e_0_energy">   -363.58460186 </i>
   </energy>
  </scstep>
  <scstep>
   <time name="diag">    0.08    0.08</time>
   <time name="diis">    0.69    0.69</time>
   <time name="orth">    0.01    0.01</time>
   <time name="total">    0.86    0.99</time>
   <energy>
    <i name="e_fr_energy">   -363.57739892 </i>
    <i name="e_wo_entrp">   -363.59915420 </i>
    <i name="e_0_energy">   -363.58465068 </i>
   </energy>
  </scstep>
  <scstep>
   <time name="diag">    0.08    0.10</time>
   <time name="diis">    0.52    0.58</time>
   <time name="orth">    0.01    0.01</time>
   <time name="total">    0.65    0.79</time>
   <energy>
    <i name="alphaZ">   1689.24825036 </i>
    <i name="ewald"> -22557.42698544 </i>
    <i name="hartreedc">  -6978.43860665 </i>
    <i name="XCdc">    -23.07482245 </i>
    <i name="pawpsdc">  37046.21144794 </i>
    <i name="pawaedc"> -35507.24182379 </i>
    <i name="eentropy">      0.02173943 </i>
    <i name="bandstr">  -2979.34001720 </i>
    <i name="atom">  28946.46341293 </i>
    <i name="e_fr_energy">   -363.57740488 </i>
    <i name="e_wo_entrp">   -363.59914430 </i>
    <i name="e_0_energy">   -363.58465135 </i>
   </energy>
  </scstep>
  <structure>
   <crystal>
    <varray name="basis" >
     <v>       6.89066793      -0.02066445      -0.00852363 </v>
     <v>      -0.02961511      10.18271593      -0.00071690 </v>
     <v>      -0.01267928      -0.00094096      10.21093860 </v>
    </varray>
    <i name="volume">    716.45044355 </i>
    <varray name="rec_basis" >
     <v>       0.14512530       0.00042209       0.00018025 </v>
     <v>       0.00029452       0.09820648       0.00000942 </v>
     <v>       0.00012116       0.00000725       0.09793434 </v>
    </varray>
   </crystal>
   <varray name="positions" >
    <v>       0.26165693       0.84215862       0.49000124 </v>
    <v>       0.74233439       0.83618137       0.49469624 </v>
    <v>       0.25806368       0.50909674       0.17513857 </v>
    <v>       0.73638879       0.49677480       0.51053069 </v>
    <v>       0.99328181       0.02658114       0.00173245 </v>
    <v>       0.75740507       0.49576825       0.81633020 </v>
    <v>       0.27109808       0.16389258       0.49184656 </v>
    <v>       0.26413272       0.15693896       0.82368604 </v>
    <v>       0.49514803       0.99026881       0.65664937 </v>
    <v>       0.50648279       0.33394434       0.33624654 </v>
    <v>       0.01104321       0.66031508       0.35458154 </v>
    <v>       0.24237356       0.83101488       0.17316231 </v>
    <v>       0.00852127       0.32856859       0.65871777 </v>
    <v>       0.72634789       0.17181645       0.82075392 </v>
    <v>       0.49426038       0.67219182       0.66605666 </v>
    <v>       0.00244191       0.00983977       0.65194949 </v>
    <v>       0.99630541       0.33535599       0.34309135 </v>
    <v>       0.01171455       0.64559092       0.99553408 </v>
    <v>       0.49555695       0.66469671       0.34692482 </v>
    <v>       0.26703214       0.49208803       0.50098722 </v>
    <v>       0.51104298       0.00139434       0.33852824 </v>
    <v>       0.99581585       0.00106030       0.34554817 </v>
    <v>       0.00024020       0.65979598       0.65790024 </v>
    <v>       0.23210141       0.50404589       0.82591796 </v>
    <v>       0.48684835       0.33750673       0.66242119 </v>
    <v>       0.74709939       0.16309914       0.17565534 </v>
    <v>       0.73167568       0.16484848       0.49891858 </v>
    <v>       0.77491434       0.83025096       0.83591001 </v>
    <v>       0.76431602       0.83352327       0.17125188 </v>
    <v>       0.48944493       0.34008011       0.00055899 </v>
    <v>       0.22318773       0.84052750       0.84011056 </v>
    <v>       0.74404927       0.51298374       0.17163808 </v>
    <v>       0.00275653       0.33035592       0.99790258 </v>
    <v>       0.48912596       0.65745166       0.98627696 </v>
    <v>       0.25514969       0.15909788       0.18019605 </v>
    <v>       0.51063813       0.00090325       0.00265210 </v>
   </varray>
  </structure>
  <varray name="forces" >
   <v>       0.01779461      -0.01092856       0.01943941 </v>
   <v>      -0.03048842       0.00511329       0.01065498 </v>
   <v>       0.00929709      -0.00565297      -0.02530824 </v>
   <v>      -0.06243736       0.03734221       0.01447267 </v>
   <v>      -0.02695373      -0.00827571       0.02060925 </v>
   <v>      -0.05482886      -0.01919729       0.06947974 </v>
   <v>      -0.02150330      -0.02631904       0.02746168 </v>
   <v>       0.10315311       0.01210457       0.01152185 </v>
   <v>      -0.00554394       0.04241344       0.02482424 </v>
   <v>       0.02629171       0.04539232       0.01586483 </v>
   <v>      -0.01158497      -0.11243635       0.09500570 </v>
   <v>      -0.00584467      -0.00715213      -0.04970578 </v>
   <v>       0.01453523       0.07972342      -0.12608992 </v>
   <v>      -0.08731450       0.07461143      -0.00352644 </v>
   <v>       0.00042460       0.00680844      -0.00466641 </v>
   <v>      -0.03719528       0.00414602      -0.08687463 </v>
   <v>       0.00703084       0.08048223       0.05608287 </v>
   <v>      -0.01269896      -0.03144254       0.02140471 </v>
   <v>      -0.00103657      -0.03188948       0.03657787 </v>
   <v>       0.06405161       0.05062008       0.00863774 </v>
   <v>       0.02268443       0.03689412      -0.02534512 </v>
   <v>      -0.01225890       0.04158731       0.06324494 </v>
   <v>       0.03220534      -0.05399275      -0.08203149 </v>
   <v>       0.05073622      -0.02365012       0.03011186 </v>
   <v>      -0.03479708       0.04386294      -0.07429228 </v>
   <v>       0.01131259      -0.02021969       0.01623907 </v>
   <v>      -0.00249024      -0.03757098       0.01169972 </v>
   <v>       0.03569185      -0.07933269      -0.00932295 </v>
   <v>       0.04113945      -0.02308187      -0.01037907 </v>
   <v>      -0.02851854      -0.03150469      -0.02886200 </v>
   <v>      -0.01587421      -0.04556440      -0.00290856 </v>
   <v>      -0.02408773      -0.04094290      -0.01812165 </v>
   <v>      -0.01654546      -0.01379654       0.01870938 </v>
   <v>       0.03197279       0.08734490       0.01891170 </v>
   <v>       0.00574749      -0.00832262       0.01256289 </v>
   <v>       0.01793375      -0.01717339      -0.05608256 </v>
  </varray>
  <varray name="stress" >
   <v>       1.58652159      -0.08050404      -0.28703008 </v>
   <v>      -0.08050406       1.53886239       0.25464676 </v>
   <v>      -0.28703010       0.25464670       2.02826783 </v>
  </varray>
  <energy>
   <i name="e_fr_energy">   -363.57740488 </i>
   <i name="e_wo_entrp">   -363.58465135 </i>
   <i name="e_0_energy">      0.02173943 </i>
  </energy>
  <time name="totalsc">   14.21   15.45</time>
 </calculation>
 <calculation>
  <scstep>
   <time name="dav">    1.16    1.17</time>
   <time name="total">    1.24    1.44</time>
   <energy>
    <i name="alphaZ">   1688.98800831 </i>
    <i name="ewald"> -22556.05882209 </i>
    <i name="hartreedc">  -6978.32449902 </i>
    <i name="XCdc">    -23.12386089 </i>
    <i name="pawpsdc">  37046.38040639 </i>
    <i name="pawaedc"> -35507.38818683 </i>
    <i name="eentropy">      0.02173422 </i>
    <i name="bandstr">  -2980.53565606 </i>
    <i name="atom">  28946.46341293 </i>
    <i name="e_fr_energy">   -363.57746306 </i>
    <i name="e_wo_entrp">   -363.59919728 </i>
    <i name="e_0_energy">   -363.58470780 </i>
   </energy>
  </scstep>
  <scstep>
   <time name="diag">    0.13    0.13</time>
   <time name="diis">    0.82    0.83</time>
   <time name="orth">    0.01    0.01</time>
   <time name="total">    1.08    1.13</time>
   <energy>
    <i name="e_fr_energy">   -363.57749998 </i>
    <i name="e_wo_entrp">   -363.59929995 </i>
    <i name="e_0_energy">   -363.58476664 </i>
   </energy>
  </scstep>
  <scstep>
   <time name="diag">    0.09    0.09</time>
   <time name="diis">    0.71    0.72</time>
   <time name="orth">    0.01    0.01</time>
   <time name="total">    0.88    0.92</time>
   <energy>
    <i name="e_fr_energy">   -363.57745843 </i>
    <i name="e_wo_entrp">   -363.59922650 </i>
    <i name="e_0_energy">   -363.58471445 </i>
   </energy>
  </scstep>
  <scstep>
   <time name="diag">    0.08    0.08</time>
   <time name="diis">    0.44    0.44</time>
   <time name="orth">    0.01    0.01</time>
   <time name="total">    0.60    0.66</time>
   <energy>
    <i name="e_fr_energy">   -363.57744700 </i>
    <i name="e_wo_entrp">   -363.59921190 </i>
    <i name="e_0_energy">   -363.58470197 </i>
   </energy>
  </scstep>
  <scstep>
   <time name="diag">    0.08    0.08</time>
   <time name="diis">    0.34    0.34</time>
   <time name="orth">    0.01    0.01</time>
   <time name="total">    0.47    0.51</time>
   <energy>
    <i name="alphaZ">   1688.98800831 </i>
    <i name="ewald"> -22556.05882209 </i>
    <i name="hartreedc">  -6979.14393227 </i>
    <i name="XCdc">    -23.08805947 </i>
    <i name="pawpsdc">  37039.58212350 </i>
    <i name="pawaedc"> -35500.50169799 </i>
    <i name="eentropy">      0.02176943 </i>
    <i name="bandstr">  -2979.84024477 </i>
    <i name="atom">  28946.46341293 </i>
    <i name="e_fr_energy">   -363.57744242 </i>
    <i name="e_wo_entrp">   -363.59921185 </i>
    <i name="e_0_energy">   -363.58469890 </i>
   </energy>
  </scstep>
  <structure>
   <crystal>
[...]
       <r>    7.3641    1.0000 </r>
       <r>    7.4248    1.0000 </r>
       <r>    7.4536    1.0000 </r>
       <r>    7.4872    1.0001 </r>
       <r>    7.5046    1.0003 </r>
       <r>    7.5658    1.0019 </r>
       <r>    7.5964    1.0042 </r>
       <r>    7.6166    1.0067 </r>
       <r>    7.6580    1.0154 </r>
       <r>    7.6998    1.0278 </r>
       <r>    7.7440    1.0354 </r>
       <r>    7.7827    1.0184 </r>
       <r>    7.8002    0.9970 </r>
       <r>    7.8226    0.9523 </r>
       <r>    7.8426    0.8943 </r>
       <r>    7.8698    0.7866 </r>
       <r>    7.9172    0.5406 </r>
       <r>    7.9399    0.4133 </r>
       <r>    7.9739    0.2369 </r>
       <r>    7.9960    0.1430 </r>
       <r>    8.0440    0.0108 </r>
       <r>    8.1203   -0.0346 </r>
       <r>    8.1545   -0.0261 </r>
       <r>    8.1603   -0.0243 </r>
       <r>    8.2107   -0.0106 </r>
       <r>    8.2513   -0.0043 </r>
       <r>    8.2876   -0.0016 </r>
       <r>    8.3114   -0.0008 </r>
       <r>    8.3600   -0.0002 </r>
       <r>    8.4095   -0.0000 </r>
       <r>    8.4684   -0.0000 </r>
       <r>    8.5099   -0.0000 </r>
       <r>    8.5625   -0.0000 </r>
       <r>    8.6134   -0.0000 </r>
       <r>    8.6444   -0.0000 </r>
       <r>    8.7941   -0.0000 </r>
       <r>    8.8197   -0.0000 </r>
       <r>    9.0070   -0.0000 </r>
       <r>    9.1254   -0.0000 </r>
       <r>    9.2206   -0.0000 </r>
       <r>    9.7949   -0.0000 </r>
       <r>    9.8193   -0.0000 </r>
       <r>    9.8811   -0.0000 </r>
       <r>    9.9610   -0.0000 </r>
       <r>   10.0257   -0.0000 </r>
       <r>   10.0703   -0.0000 </r>
       <r>   10.1279   -0.0000 </r>
       <r>   10.2225   -0.0000 </r>
       <r>   10.2854   -0.0000 </r>
      </set>
     </set>
    </set>
   </array>
  </eigenvalues>
  <separator name="orbital magnetization" >
   <v name="MAGDIPOLOUT">      0.00000000      0.00000000      0.00000000</v>
  </separator>
  <dos>
   <i name="efermi">      7.92445388 </i>
   <total>
    <array>
     <dimension dim="1">gridpoints</dimension>
     <dimension dim="2">spin</dimension>
     <field>energy</field>
     <field>total</field>
     <field>integrated</field>
     <set>
      <set comment="spin 1">
       <r>   -49.2101     0.0000     0.0000 </r>
       <r>   -49.0022     0.0000     0.0000 </r>
       <r>   -48.7942     0.0000     0.0000 </r>
       <r>   -48.5863     0.0000     0.0000 </r>
       <r>   -48.3784     0.0000     0.0000 </r>
       <r>   -48.1704     0.0000     0.0000 </r>
       <r>   -47.9625     0.0000     0.0000 </r>
       <r>   -47.7545    -0.0000    -0.0000 </r>
       <r>   -47.5466    -0.0000    -0.0000 </r>
       <r>   -47.3387    -0.0000    -0.0000 </r>
       <r>   -47.1307    -0.0000    -0.0000 </r>
       <r>   -46.9228    -0.0000    -0.0000 </r>
       <r>   -46.7148    -0.0413    -0.0086 </r>
       <r>   -46.5069    -1.1386    -0.2453 </r>
       <r>   -46.2990    24.7234     4.8956 </r>
       <r>   -46.0910    64.6867    18.3465 </r>
       <r>   -45.8831     8.7117    20.1580 </r>
       <r>   -45.6751    -0.7572    20.0006 </r>
       <r>   -45.4672    -0.0028    20.0000 </r>
       <r>   -45.2593    -0.0000    20.0000 </r>
       <r>   -45.0513    -0.0000    20.0000 </r>
       <r>   -44.8434     0.0000    20.0000 </r>
       <r>   -44.6354     0.0000    20.0000 </r>
       <r>   -44.4275     0.0000    20.0000 </r>
       <r>   -44.2196     0.0000    20.0000 </r>
       <r>   -44.0116     0.0000    20.0000 </r>
       <r>   -43.8037     0.0000    20.0000 </r>
       <r>   -43.5958     0.0000    20.0000 </r>
       <r>   -43.3878     0.0000    20.0000 </r>
       <r>   -43.1799     0.0000    20.0000 </r>
       <r>   -42.9719     0.0000    20.0000 </r>
       <r>   -42.7640     0.0000    20.0000 </r>
       <r>   -42.5561     0.0000    20.0000 </r>
       <r>   -42.3481     0.0000    20.0000 </r>
       <r>   -42.1402     0.0000    20.0000 </r>
       <r>   -41.9322     0.0000    20.0000 </r>
       <r>   -41.7243    -0.0000    20.0000 </r>
       <r>   -41.5164    -0.0000    20.0000 </r>
       <r>   -41.3084    -0.0000    20.0000 </r>
       <r>   -41.1005    -0.0000    20.0000 </r>
       <r>   -40.8925    -0.0000    20.0000 </r>
       <r>   -40.6846    -0.0253    19.9947 </r>
       <r>   -40.4767    -1.2236    19.7403 </r>
       <r>   -40.2687    21.8406    24.2818 </r>
       <r>   -40.0608    61.1635    37.0001 </r>
       <r>   -39.8528     5.3557    38.1138 </r>
       <r>   -39.6449    -0.5460    38.0003 </r>
       <r>   -39.4370    -0.0013    38.0000 </r>
       <r>   -39.2290    -0.0000    38.0000 </r>
       <r>   -39.0211    -0.0000    38.0000 </r>
       <r>   -38.8131     0.0000    38.0000 </r>
       <r>   -38.6052     0.0000    38.0000 </r>
       <r>   -38.3973     0.0000    38.0000 </r>
       <r>   -38.1893     0.0000    38.0000 </r>
       <r>   -37.9814     0.0000    38.0000 </r>
       <r>   -37.7734     0.0000    38.0000 </r>
       <r>   -37.5655     0.0000    38.0000 </r>
       <r>   -37.3576     0.0000    38.0000 </r>
       <r>   -37.1496     0.0000    38.0000 </r>
       <r>   -36.9417     0.0000    38.0000 </r>
       <r>   -36.7337     0.0000    38.0000 </r>
       <r>   -36.5258     0.0000    38.0000 </r>
       <r>   -36.3179     0.0000    38.0000 </r>
       <r>   -36.1099     0.0000    38.0000 </r>
       <r>   -35.9020     0.0000    38.0000 </r>
       <r>   -35.6940     0.0000    38.0000 </r>
       <r>   -35.4861     0.0000    38.0000 </r>
       <r>   -35.2782     0.0000    38.0000 </r>
       <r>   -35.0702     0.0000    38.0000 </r>
       <r>   -34.8623     0.0000    38.0000 </r>
       <r>   -34.6543     0.0000    38.0000 </r>
       <r>   -34.4464     0.0000    38.0000 </r>
       <r>   -34.2385     0.0000    38.0000 </r>
       <r>   -34.0305     0.0000    38.0000 </r>
       <r>   -33.8226     0.0000    38.0000 </r>
       <r>   -33.6147     0.0000    38.0000 </r>
       <r>   -33.4067     0.0000    38.0000 </r>
       <r>   -33.1988     0.0000    38.0000 </r>
       <r>   -32.9908     0.0000    38.0000 </r>
       <r>   -32.7829     0.0000    38.0000 </r>
       <r>   -32.5750     0.0000    38.0000 </r>
       <r>   -32.3670     0.0000    38.0000 </r>
       <r>   -32.1591     0.0000    38.0000 </r>
       <r>   -31.9511     0.0000    38.0000 </r>
       <r>   -31.7432     0.0000    38.0000 </r>
       <r>   -31.5353     0.0000    38.0000 </r>
       <r>   -31.3273     0.0000    38.0000 </r>
       <r>   -31.1194     0.0000    38.0000 </r>
       <r>   -30.9114     0.0000    38.0000 </r>
       <r>   -30.7035     0.0000    38.0000 </r>
       <r>   -30.4956     0.0000    38.0000 </r>
       <r>   -30.2876     0.0000    38.0000 </r>
       <r>   -30.0797     0.0000    38.0000 </r>
       <r>   -29.8717     0.0000    38.0000 </r>
       <r>   -29.6638     0.0000    38.0000 </r>
       <r>   -29.4559     0.0000    38.0000 </r>
       <r>   -29.2479     0.0000    38.0000 </r>
       <r>   -29.0400     0.0000    38.0000 </r>
       <r>   -28.8320     0.0000    38.0000 </r>
       <r>   -28.6241     0.0000    38.0000 </r>
       <r>   -28.4162     0.0000    38.0000 </r>
       <r>   -28.2082     0.0000    38.0000 </r>
       <r>   -28.0003     0.0000    38.0000 </r>
       <r>   -27.7923     0.0000    38.0000 </r>
       <r>   -27.5844     0.0000    38.0000 </r>
       <r>   -27.3765     0.0000    38.0000 </r>
       <r>   -27.1685     0.0000    38.0000 </r>
       <r>   -26.9606     0.0000    38.0000 </r>
       <r>   -26.7526     0.0000    38.0000 </r>
       <r>   -26.5447     0.0000    38.0000 </r>
       <r>   -26.3368     0.0000    38.0000 </r>
       <r>   -26.1288     0.0000    38.0000 </r>
       <r>   -25.9209     0.0000    38.0000 </r>
       <r>   -25.7129     0.0000    38.0000 </r>
       <r>   -25.5050     0.0000    38.0000 </r>
       <r>   -25.2971     0.0000    38.0000 </r>
       <r>   -25.0891     0.0000    38.0000 </r>
       <r>   -24.8812     0.0000    38.0000 </r>
       <r>   -24.6732     0.0000    38.0000 </r>
       <r>   -24.4653     0.0000    38.0000 </r>
       <r>   -24.2574     0.0000    38.0000 </r>
       <r>   -24.0494    -0.0000    38.0000 </r>
       <r>   -23.8415    -0.0000    38.0000 </r>
       <r>   -23.6336    -0.0000    38.0000 </r>
       <r>   -23.4256    -0.0000    38.0000 </r>
       <r>   -23.2177    -0.0014    37.9997 </r>
       <r>   -23.0097    -0.4373    37.9088 </r>
       <r>   -22.8018     4.0423    38.7493 </r>
       <r>   -22.5939    49.1220    48.9637 </r>
       <r>   -22.3859    75.1236    64.5849 </r>
       <r>   -22.1780    97.9942    84.9618 </r>
       <r>   -21.9700    49.3362    95.2207 </r>
       <r>   -21.7621    14.2652    98.1870 </r>
       <r>   -21.5542    -0.8831    98.0034 </r>
       <r>   -21.3462    -0.0165    98.0000 </r>
       <r>   -21.1383    -0.0000    98.0000 </r>
       <r>   -20.9303    -0.0000    98.0000 </r>
       <r>   -20.7224     0.0000    98.0000 </r>
       <r>   -20.5145     0.0000    98.0000 </r>
       <r>   -20.3065     0.0000    98.0000 </r>
       <r>   -20.0986    -0.0000    98.0000 </r>
       <r>   -19.8906    -0.0000    98.0000 </r>
       <r>   -19.6827    -0.0000    98.0000 </r>
       <r>   -19.4748    -0.0000    98.0000 </r>
       <r>   -19.2668    -0.0001    98.0000 </r>
       <r>   -19.0589    -0.0767    97.9840 </r>
       <r>   -18.8509    -0.2039    97.9416 </r>
       <r>   -18.6430    19.6538   102.0284 </r>
       <r>   -18.4351    61.8079   114.8808 </r>
       <r>   -18.2271    77.9482   131.0893 </r>
       <r>   -18.0192    76.9129   147.0825 </r>
       <r>   -17.8112    25.0495   152.2913 </r>
       <r>   -17.6033    -1.3668   152.0071 </r>
       <r>   -17.3954    -0.0339   152.0000 </r>
       <r>   -17.1874    -0.0000   152.0000 </r>
       <r>   -16.9795    -0.0000   152.0000 </r>
       <r>   -16.7715     0.0000   152.0000 </r>
       <r>   -16.5636     0.0000   152.0000 </r>
       <r>   -16.3557     0.0000   152.0000 </r>
       <r>   -16.1477     0.0000   152.0000 </r>
       <r>   -15.9398     0.0000   152.0000 </r>
       <r>   -15.7318     0.0000   152.0000 </r>
       <r>   -15.5239     0.0000   152.0000 </r>
       <r>   -15.3160     0.0000   152.0000 </r>
       <r>   -15.1080     0.0000   152.0000 </r>
       <r>   -14.9001     0.0000   152.0000 </r>
       <r>   -14.6921     0.0000   152.0000 </r>
       <r>   -14.4842     0.0000   152.0000 </r>
       <r>   -14.2763     0.0000   152.0000 </r>
       <r>   -14.0683     0.0000   152.0000 </r>
       <r>   -13.8604     0.0000   152.0000 </r>
       <r>   -13.6524     0.0000   152.0000 </r>
       <r>   -13.4445     0.0000   152.0000 </r>
       <r>   -13.2366     0.0000   152.0000 </r>
       <r>   -13.0286     0.0000   152.0000 </r>
       <r>   -12.8207     0.0000   152.0000 </r>
       <r>   -12.6128     0.0000   152.0000 </r>
       <r>   -12.4048     0.0000   152.0000 </r>
       <r>   -12.1969     0.0000   152.0000 </r>
       <r>   -11.9889     0.0000   152.0000 </r>
       <r>   -11.7810     0.0000   152.0000 </r>
       <r>   -11.5731     0.0000   152.0000 </r>
       <r>   -11.3651     0.0000   152.0000 </r>
       <r>   -11.1572     0.0000   152.0000 </r>
       <r>   -10.9492     0.0000   152.0000 </r>
       <r>   -10.7413     0.0000   152.0000 </r>
       <r>   -10.5334     0.0000   152.0000 </r>
       <r>   -10.3254     0.0000   152.0000 </r>
       <r>   -10.1175     0.0000   152.0000 </r>
       <r>    -9.9095     0.0000   152.0000 </r>
       <r>    -9.7016     0.0000   152.0000 </r>
       <r>    -9.4937     0.0000   152.0000 </r>
       <r>    -9.2857     0.0000   152.0000 </r>
       <r>    -9.0778     0.0000   152.0000 </r>
       <r>    -8.8698     0.0000   152.0000 </r>
       <r>    -8.6619     0.0000   152.0000 </r>
       <r>    -8.4540     0.0000   152.0000 </r>
       <r>    -8.2460     0.0000   152.0000 </r>
       <r>    -8.0381     0.0000   152.0000 </r>
       <r>    -7.8301     0.0000   152.0000 </r>
       <r>    -7.6222     0.0000   152.0000 </r>
       <r>    -7.4143     0.0000   152.0000 </r>
       <r>    -7.2063     0.0000   152.0000 </r>
       <r>    -6.9984     0.0000   152.0000 </r>
       <r>    -6.7904     0.0000   152.0000 </r>
       <r>    -6.5825     0.0000   152.0000 </r>
       <r>    -6.3746     0.0000   152.0000 </r>
       <r>    -6.1666     0.0000   152.0000 </r>
       <r>    -5.9587     0.0000   152.0000 </r>
       <r>    -5.7507     0.0000   152.0000 </r>
       <r>    -5.5428     0.0000   152.0000 </r>
       <r>    -5.3349     0.0000   152.0000 </r>
       <r>    -5.1269     0.0000   152.0000 </r>
       <r>    -4.9190     0.0000   152.0000 </r>
       <r>    -4.7110     0.0000   152.0000 </r>
       <r>    -4.5031     0.0000   152.0000 </r>
       <r>    -4.2952     0.0000   152.0000 </r>
       <r>    -4.0872     0.0000   152.0000 </r>
       <r>    -3.8793     0.0000   152.0000 </r>
       <r>    -3.6713     0.0000   152.0000 </r>
       <r>    -3.4634     0.0000   152.0000 </r>
       <r>    -3.2555     0.0000   152.0000 </r>
       <r>    -3.0475     0.0000   152.0000 </r>
       <r>    -2.8396     0.0000   152.0000 </r>
       <r>    -2.6317     0.0000   152.0000 </r>
       <r>    -2.4237     0.0000   152.0000 </r>
       <r>    -2.2158     0.0000   152.0000 </r>
       <r>    -2.0078     0.0000   152.0000 </r>
       <r>    -1.7999     0.0000   152.0000 </r>
       <r>    -1.5920     0.0000   152.0000 </r>
       <r>    -1.3840     0.0000   152.0000 </r>
       <r>    -1.1761     0.0000   152.0000 </r>
       <r>    -0.9681     0.0000   152.0000 </r>
       <r>    -0.7602     0.0000   152.0000 </r>
       <r>    -0.5523     0.0000   152.0000 </r>
       <r>    -0.3443     0.0000   152.0000 </r>
       <r>    -0.1364    -0.0000   152.0000 </r>
       <r>     0.0716    -0.0000   152.0000 </r>
       <r>     0.2795    -0.0000   152.0000 </r>
       <r>     0.4874    -0.0000   152.0000 </r>
       <r>     0.6954    -0.0000   152.0000 </r>
       <r>     0.9033    -0.0028   151.9994 </r>
       <r>     1.1113     0.0174   152.0030 </r>
       <r>     1.3192     0.4217   152.0907 </r>
       <r>     1.5271     1.3744   152.3765 </r>
       <r>     1.7351     1.7176   152.7337 </r>
       <r>     1.9430     2.2784   153.2074 </r>
       <r>     2.1510     4.0185   154.0430 </r>
       <r>     2.3589     2.5135   154.5657 </r>
       <r>     2.5668     2.6028   155.1069 </r>
       <r>     2.7748     4.5628   156.0557 </r>
       <r>     2.9827     3.3296   156.7480 </r>
       <r>     3.1907     5.9191   157.9789 </r>
       <r>     3.3986     7.7707   159.5947 </r>
       <r>     3.6065     7.2667   161.1057 </r>
       <r>     3.8145     8.6950   162.9138 </r>
       <r>     4.0224     8.9895   164.7830 </r>
       <r>     4.2304    12.4655   167.3751 </r>
       <r>     4.4383    19.5892   171.4485 </r>
       <r>     4.6462    21.7312   175.9673 </r>
       <r>     4.8542    28.0596   181.8020 </r>
       <r>     5.0621    31.5757   188.3678 </r>
       <r>     5.2701    37.0758   196.0773 </r>
       <r>     5.4780    39.7543   204.3438 </r>
       <r>     5.6859    40.2783   212.7193 </r>
       <r>     5.8939    35.0191   220.0011 </r>
       <r>     6.1018    35.6335   227.4107 </r>
       <r>     6.3098    22.3362   232.0553 </r>
       <r>     6.5177    25.0349   237.2611 </r>
       <r>     6.7256    62.5085   250.2591 </r>
       <r>     6.9336    62.1849   263.1898 </r>
       <r>     7.1415    55.8056   274.7940 </r>
       <r>     7.3495    48.7584   284.9328 </r>
       <r>     7.5574    54.1900   296.2010 </r>
       <r>     7.7653    56.5784   307.9659 </r>
       <r>     7.9733    49.3895   318.2360 </r>
       <r>     8.1812    49.5923   328.5481 </r>
       <r>     8.3891    49.0355   338.7446 </r>
       <r>     8.5971    38.1955   346.6869 </r>
       <r>     8.8050    31.8368   353.3071 </r>
       <r>     9.0130    22.1353   357.9099 </r>
       <r>     9.2209    17.6866   361.5876 </r>
       <r>     9.4288    11.8602   364.0538 </r>
       <r>     9.6368    18.8667   367.9770 </r>
       <r>     9.8447    29.5047   374.1122 </r>
       <r>    10.0527    26.3688   379.5953 </r>
       <r>    10.2606    17.9264   383.3229 </r>
       <r>    10.4685     3.4973   384.0501 </r>
       <r>    10.6765    -0.2372   384.0008 </r>
       <r>    10.8844    -0.0038   384.0000 </r>
       <r>    11.0924    -0.0000   384.0000 </r>
       <r>    11.3003    -0.0000   384.0000 </r>
       <r>    11.5082     0.0000   384.0000 </r>
       <r>    11.7162     0.0000   384.0000 </r>
       <r>    11.9241     0.0000   384.0000 </r>
       <r>    12.1321     0.0000   384.0000 </r>
       <r>    12.3400     0.0000   384.0000 </r>
       <r>    12.5479     0.0000   384.0000 </r>
       <r>    12.7559     0.0000   384.0000 </r>
       <r>    12.9638     0.0000   384.0000 </r>
       <r>    13.1718     0.0000   384.0000 </r>
      </set>
     </set>
    </array>
   </total>
  </dos>
 </calculation>
 <structure name="finalpos" >
  <crystal>
   <varray name="basis" >
    <v>       6.89240868      -0.02926253      -0.00806894 </v>
    <v>      -0.04235277      10.17728889      -0.00846836 </v>
    <v>      -0.01200498      -0.00870511      10.22879466 </v>
   </varray>
   <i name="volume">    717.49520394 </i>
   <varray name="rec_basis" >
    <v>       0.14508992       0.00060393       0.00017080 </v>
    <v>       0.00041727       0.09825980       0.00008411 </v>
    <v>       0.00011480       0.00008183       0.09776343 </v>
   </varray>
  </crystal>
  <varray name="positions" >
   <v>       0.26195645       0.84246901       0.49140962 </v>
   <v>       0.74156331       0.83646333       0.49480161 </v>
   <v>       0.25891886       0.50892549       0.17477122 </v>
   <v>       0.73422868       0.49868575       0.50985965 </v>
   <v>       0.99133337       0.02656291       0.00056252 </v>
   <v>       0.75497595       0.49463853       0.81906041 </v>
   <v>       0.26926263       0.16351833       0.49182946 </v>
   <v>       0.26515539       0.15787850       0.82292987 </v>
   <v>       0.49567922       0.99153383       0.65704411 </v>
   <v>       0.50631101       0.33360377       0.33624893 </v>
   <v>       0.01124136       0.65855682       0.35559851 </v>
   <v>       0.24109397       0.83084428       0.17288441 </v>
   <v>       0.00860357       0.33087279       0.65683929 </v>
   <v>       0.72318788       0.17672628       0.81991611 </v>
   <v>       0.49486623       0.67295217       0.66731834 </v>
   <v>      -0.00009238       0.01079034       0.65162964 </v>
   <v>       0.99694229       0.33622269       0.34401489 </v>
   <v>       0.01122038       0.64315611       0.99682340 </v>
   <v>       0.49594612       0.66470870       0.34643744 </v>
   <v>       0.26967685       0.49453081       0.50128728 </v>
   <v>       0.51142097       0.00213375       0.33880680 </v>
   <v>       0.99577521       0.00191322       0.34704885 </v>
   <v>       0.00216196       0.65764449       0.65720213 </v>
   <v>       0.23485551       0.50380995       0.82729906 </v>
   <v>       0.48506002       0.33945148       0.66146350 </v>
   <v>       0.74533414       0.16250641       0.17584505 </v>
   <v>       0.73218135       0.16444445       0.49803982 </v>
   <v>       0.78017014       0.82682144       0.83522045 </v>
   <v>       0.76733395       0.83369139       0.17206950 </v>
   <v>       0.48549306       0.33964644       0.00072388 </v>
   <v>       0.22107527       0.83944652       0.83904766 </v>
   <v>       0.74314811       0.50985748       0.17172030 </v>
   <v>       0.00267795       0.32933414       0.99819534 </v>
   <v>       0.49167934       0.66161086       0.98819012 </v>
   <v>       0.25674491       0.15762225       0.17936895 </v>
   <v>       0.51281297      -0.00356570      -0.00150410 </v>
  </varray>
 </structure>
</modeling>
