 vasp.5.4.1 05Feb16 (build Jan 29 2020 16:04:39) complex                        
  
 executed on           IFC91_ompi date 2020.06.15  05:34:25
 running on  160 total cores
 distrk:  each k-point on   20 cores,    8 groups
 distr:  one band on NCORES_PER_BAND=   5 cores,    4 groups


--------------------------------------------------------------------------------------------------------


 INCAR:
 POTCAR:    PAW_PBE Ta 17Jan2003                  
 POTCAR:    PAW_PBE Hf 20Jan2003                  
 POTCAR:    PAW_PBE Nb_sv 25May2007               
 POTCAR:    PAW_PBE Zr_sv 04Jan2005               

 ----------------------------------------------------------------------------- 
|                                                                             |
|           W    W    AA    RRRRR   N    N  II  N    N   GGGG   !!!           |
|           W    W   A  A   R    R  NN   N  II  NN   N  G    G  !!!           |
|           W    W  A    A  R    R  N N  N  II  N N  N  G       !!!           |
|           W WW W  AAAAAA  RRRRR   N  N N  II  N  N N  G  GGG   !            |
|           WW  WW  A    A  R   R   N   NN  II  N   NN  G    G                |
|           W    W  A    A  R    R  N    N  II  N    N   GGGG   !!!           |
|                                                                             |
|      For optimal performance we recommend to set                            |
|        NCORE= 4 - approx SQRT( number of cores)                             |
|      NCORE specifies how many cores store one orbital (NPAR=cpu/NCORE).     |
|      This setting can  greatly improve the performance of VASP for DFT.     |
|      The default, NPAR=number of cores might be grossly inefficient         |
|      on modern multi-core architectures or massively parallel machines.     |
|      Do your own testing !!!!                                               |
|      Unfortunately you need to use the default for GW and RPA calculations. |
|      (for HF NCORE is supported but not extensively tested yet)             |
|                                                                             |
 ----------------------------------------------------------------------------- 


 ----------------------------------------------------------------------------- 
|                                                                             |
|           W    W    AA    RRRRR   N    N  II  N    N   GGGG   !!!           |
|           W    W   A  A   R    R  NN   N  II  NN   N  G    G  !!!           |
|           W    W  A    A  R    R  N N  N  II  N N  N  G       !!!           |
|           W WW W  AAAAAA  RRRRR   N  N N  II  N  N N  G  GGG   !            |
|           WW  WW  A    A  R   R   N   NN  II  N   NN  G    G                |
|           W    W  A    A  R    R  N    N  II  N    N   GGGG   !!!           |
|                                                                             |
|      You have enabled k-point parallelism (KPAR>1).                         |
|      This developmental code was originally  written by Paul Kent at ORNL,  |
|      and carefully double checked in Vienna.                                |
|      GW as well as linear response parallelism added by Martijn Marsman     |
|      and Georg Kresse.                                                      |
|      Carefully verify results versus KPAR=1.                                |
|      Report problems to Paul Kent and Vienna.                               |
|                                                                             |
 ----------------------------------------------------------------------------- 

 POTCAR:    PAW_PBE Ta 17Jan2003                  
   VRHFIN =Ta:  6s5d                                                            
   LEXCH  = PE                                                                  
   EATOM  =   130.6506 eV,    9.6025 Ry                                         
                                                                                
   TITEL  = PAW_PBE Ta 17Jan2003                                                
   LULTRA =        F    use ultrasoft PP ?                                      
   IUNSCR =        1    unscreen: 0-lin 1-nonlin 2-no                           
   RPACOR =    2.330    partial core radius                                     
   POMASS =  180.948; ZVAL   =    5.000    mass and valenz                      
   RCORE  =    2.900    outmost cutoff radius                                   
   RWIGS  =    2.840; RWIGS  =    1.503    wigner-seitz radius (au A)           
   ENMAX  =  223.667; ENMIN  =  167.750 eV                                      
   RCLOC  =    2.205    cutoff for local pot                                    
   LCOR   =        T    correct aug charges                                     
   LPAW   =        T    paw PP                                                  
   EAUG   =  332.075                                                            
   DEXC   =    0.000                                                            
   RMAX   =    2.970    core radius for proj-oper                               
   RAUG   =    1.300    factor for augmentation sphere                          
   RDEP   =    3.060    radius for radial grids                                 
   RDEPT  =    2.354    core radius for aug-charge                              
                                                                                
   Atomic configuration                                                         
   16 entries                                                                   
     n  l   j            E        occ.                                          
     1  0  0.50    -67341.2807   2.0000                                         
     2  0  0.50    -11566.9376   2.0000                                         
     2  1  1.50    -10134.1182   6.0000                                         
     3  0  0.50     -2648.5620   2.0000                                         
     3  1  1.50     -2222.6012   6.0000                                         
     3  2  2.50     -1726.3120  10.0000                                         
     4  0  0.50      -538.6961   2.0000                                         
     4  1  1.50      -399.0129   6.0000                                         
     4  2  2.50      -220.3959  10.0000                                         
     4  3  3.50       -23.0374  14.0000                                         
     5  0  0.50       -71.2901   2.0000                                         
     5  1  1.50       -37.8225   6.0000                                         
     5  2  2.50        -2.6455   4.0000                                         
     6  0  0.50        -4.9623   1.0000                                         
     6  1  1.50        -1.3606   0.0000                                         
     5  3  2.50        -1.3606   0.0000                                         
   Description                                                                  
     l       E           TYP  RCUT    TYP  RCUT                                 
     2     -2.6455043     23  2.500                                             
     2     -0.6258895     23  2.500                                             
     0     -4.9622780     23  2.500                                             
     0      4.7531321     23  2.500                                             
     1     -1.3605826     23  2.900                                             
     1     27.2116520     23  2.900                                             
  local pseudopotential read in
  partial core-charges read in
  partial kinetic energy density read in
  atomic valenz-charges read in
  non local Contribution for L=           2  read in
    real space projection operators read in
  non local Contribution for L=           2  read in
    real space projection operators read in
  non local Contribution for L=           0  read in
    real space projection operators read in
  non local Contribution for L=           0  read in
    real space projection operators read in
  non local Contribution for L=           1  read in
    real space projection operators read in
  non local Contribution for L=           1  read in
    real space projection operators read in
    PAW grid and wavefunctions read in
 
   number of l-projection  operators is LMAX  =           6
   number of lm-projection operators is LMMAX =          18
 
 POTCAR:    PAW_PBE Hf 20Jan2003                  
   VRHFIN =Hf: 6s5d                                                             
   LEXCH  = PE                                                                  
   EATOM  =    75.9011 eV,    5.5786 Ry                                         
                                                                                
   TITEL  = PAW_PBE Hf 20Jan2003                                                
   LULTRA =        F    use ultrasoft PP ?                                      
   IUNSCR =        1    unscreen: 0-lin 1-nonlin 2-no                           
   RPACOR =    2.500    partial core radius                                     
   POMASS =  178.490; ZVAL   =    4.000    mass and valenz                      
   RCORE  =    3.000    outmost cutoff radius                                   
   RWIGS  =    3.050; RWIGS  =    1.614    wigner-seitz radius (au A)           
   ENMAX  =  220.334; ENMIN  =  165.250 eV                                      
   RCLOC  =    2.212    cutoff for local pot                                    
   LCOR   =        T    correct aug charges                                     
   LPAW   =        T    paw PP                                                  
   EAUG   =  335.116                                                            
   DEXC   =    0.000                                                            
   RMAX   =    3.077    core radius for proj-oper                               
   RAUG   =    1.300    factor for augmentation sphere                          
   RDEP   =    3.047    radius for radial grids                                 
   RDEPT  =    2.344    core radius for aug-charge                              
                                                                                
   Atomic configuration                                                         
   16 entries                                                                   
     n  l   j            E        occ.                                          
     1  0  0.50    -65259.4397   2.0000                                         
     2  0  0.50    -11157.9882   2.0000                                         
     2  1  1.50     -9795.2113   6.0000                                         
     3  0  0.50     -2541.4058   2.0000                                         
     3  1  1.50     -2134.4770   6.0000                                         
     3  2  2.50     -1653.5418  10.0000                                         
     4  0  0.50      -510.9575   2.0000                                         
     4  1  1.50      -377.5023   6.0000                                         
     4  2  2.50      -205.2085  10.0000                                         
     4  3  3.50       -15.4905  14.0000                                         
     5  0  0.50       -65.6020   2.0000                                         
     5  1  1.50       -34.2798   6.0000                                         
     5  2  2.50        -1.9877   3.0000                                         
     6  0  0.50        -4.7357   1.0000                                         
     6  1  1.50        -1.3606   0.0000                                         
     5  3  2.50        -1.3606   0.0000                                         
   Description                                                                  
     l       E           TYP  RCUT    TYP  RCUT                                 
     2     -1.9876627     23  2.500                                             
     2      0.0744703     23  2.500                                             
     0     -4.7356889     23  2.600                                             
     0      3.2364747     23  2.600                                             
     1     -1.3605826     23  3.000                                             
     1     27.2116520     23  3.000                                             
  local pseudopotential read in
  partial core-charges read in
  partial kinetic energy density read in
  atomic valenz-charges read in
  non local Contribution for L=           2  read in
    real space projection operators read in
  non local Contribution for L=           2  read in
    real space projection operators read in
  non local Contribution for L=           0  read in
    real space projection operators read in
  non local Contribution for L=           0  read in
    real space projection operators read in
  non local Contribution for L=           1  read in
    real space projection operators read in
  non local Contribution for L=           1  read in
    real space projection operators read in
    PAW grid and wavefunctions read in
 
   number of l-projection  operators is LMAX  =           6
   number of lm-projection operators is LMMAX =          18
 
 POTCAR:    PAW_PBE Nb_sv 25May2007               
   VRHFIN =Nb: 4p5s4d                                                           
   LEXCH  = PE                                                                  
   EATOM  =  1555.1913 eV,  114.3033 Ry                                         
                                                                                
   TITEL  = PAW_PBE Nb_sv 25May2007                                             
   LULTRA =        F    use ultrasoft PP ?                                      
   IUNSCR =        1    unscreen: 0-lin 1-nonlin 2-no                           
   RPACOR =    1.800    partial core radius                                     
   POMASS =   92.910; ZVAL   =   13.000    mass and valenz                      
   RCORE  =    2.400    outmost cutoff radius                                   
   RWIGS  =    2.400; RWIGS  =    1.270    wigner-seitz radius (au A)           
   ENMAX  =  293.235; ENMIN  =  219.927 eV                                      
   ICORE  =        3    local potential                                         
   LCOR   =        T    correct aug charges                                     
   LPAW   =        T    paw PP                                                  
   EAUG   =  455.659                                                            
   DEXC   =    0.000                                                            
   RMAX   =    2.456    core radius for proj-oper                               
   RAUG   =    1.300    factor for augmentation sphere                          
   RDEP   =    2.451    radius for radial grids                                 
   RDEPT  =    1.956    core radius for aug-charge                              
                                                                                
   Atomic configuration                                                         
   11 entries                                                                   
     n  l   j            E        occ.                                          
     1  0  0.50    -18805.2457   2.0000                                         
     2  0  0.50     -2630.2869   2.0000                                         
     2  1  1.50     -2348.4046   6.0000                                         
     3  0  0.50      -438.8757   2.0000                                         
     3  1  1.50      -346.7588   6.0000                                         
     3  2  2.50      -196.2560  10.0000                                         
     4  0  0.50       -58.3859   2.0000                                         
     5  0  0.50        -3.9816   1.0000                                         
     4  1  1.50       -34.5141   6.0000                                         
     4  2  2.50        -3.0408   4.0000                                         
     4  3  2.50        -1.3606   0.0000                                         
   Description                                                                  
     l       E           TYP  RCUT    TYP  RCUT                                 
     0    -58.3859094     23  2.200                                             
     0     -3.9816262     23  2.200                                             
     1    -34.5140738     23  2.200                                             
     1     13.6058260     23  2.200                                             
     2     -3.0408010     23  2.200                                             
     2     -0.1283038     23  2.200                                             
     3     -1.3605826     23  2.400                                             
  local pseudopotential read in
  partial core-charges read in
  partial kinetic energy density read in
  atomic valenz-charges read in
  non local Contribution for L=           0  read in
    real space projection operators read in
  non local Contribution for L=           0  read in
    real space projection operators read in
  non local Contribution for L=           1  read in
    real space projection operators read in
  non local Contribution for L=           1  read in
    real space projection operators read in
  non local Contribution for L=           2  read in
    real space projection operators read in
  non local Contribution for L=           2  read in
    real space projection operators read in
    PAW grid and wavefunctions read in
 
   number of l-projection  operators is LMAX  =           6
   number of lm-projection operators is LMMAX =          18
 
 POTCAR:    PAW_PBE Zr_sv 04Jan2005               
   VRHFIN =Zr: 4s4p5s4d                                                         
   LEXCH  = PE                                                                  
   EATOM  =  1284.2219 eV,   94.3876 Ry                                         
                                                                                
   TITEL  = PAW_PBE Zr_sv 04Jan2005                                             
   LULTRA =        F    use ultrasoft PP ?                                      
   IUNSCR =        1    unscreen: 0-lin 1-nonlin 2-no                           
   RPACOR =    2.200    partial core radius                                     
   POMASS =   91.224; ZVAL   =   12.000    mass and valenz                      
   RCORE  =    2.500    outmost cutoff radius                                   
   RWIGS  =    3.070; RWIGS  =    1.625    wigner-seitz radius (au A)           
   ENMAX  =  229.898; ENMIN  =  172.424 eV                                      
   ICORE  =        3    local potential                                         
   LCOR   =        T    correct aug charges                                     
   LPAW   =        T    paw PP                                                  
   EAUG   =  461.257                                                            
   DEXC   =    0.000                                                            
   RMAX   =    2.561    core radius for proj-oper                               
   RAUG   =    1.300    factor for augmentation sphere                          
   RDEP   =    2.597    radius for radial grids                                 
   RDEPT  =    2.007    core radius for aug-charge                              
                                                                                
   Atomic configuration                                                         
   11 entries                                                                   
     n  l   j            E        occ.                                          
     1  0  0.50    -17820.0161   2.0000                                         
     2  0  0.50     -2467.0882   2.0000                                         
     2  1  1.50     -2199.6095   6.0000                                         
     3  0  0.50      -402.4863   2.0000                                         
     3  1  1.50      -315.3675   6.0000                                         
     3  2  2.50      -172.4472  10.0000                                         
     4  0  0.50       -52.4146   2.0000                                         
     5  0  0.50        -3.8421   1.0000                                         
     4  1  1.50       -30.5054   6.0000                                         
     4  2  2.50        -2.3341   3.0000                                         
     4  3  2.50        -1.3606   0.0000                                         
   Description                                                                  
     l       E           TYP  RCUT    TYP  RCUT                                 
     0    -52.4145962     23  2.200                                             
     0     -3.8421270     23  2.500                                             
     1    -30.5053914     23  2.200                                             
     1     20.4087390     23  2.200                                             
     2     -2.3340816     23  2.500                                             
     2     -0.6120942     23  2.500                                             
     3     -4.0817478     23  2.500                                             
  local pseudopotential read in
  partial core-charges read in
  partial kinetic energy density read in
  atomic valenz-charges read in
  non local Contribution for L=           0  read in
    real space projection operators read in
  non local Contribution for L=           0  read in
    real space projection operators read in
  non local Contribution for L=           1  read in
    real space projection operators read in
  non local Contribution for L=           1  read in
    real space projection operators read in
  non local Contribution for L=           2  read in
    real space projection operators read in
  non local Contribution for L=           2  read in
    real space projection operators read in
    PAW grid and wavefunctions read in
 
   number of l-projection  operators is LMAX  =           6
   number of lm-projection operators is LMMAX =          18
 
 Optimization of the real space projectors (new method)

 maximal supplied QI-value         = 12.85
 optimisation between [QCUT,QGAM] = [  8.87, 17.73] = [ 22.01, 88.06] Ry 
 Optimized for a Real-space Cutoff    1.90 Angstroem

   l    n(q)    QCUT    max X(q) W(low)/X(q) W(high)/X(q)  e(spline) 
   2      9     8.867    62.315    0.23E-03    0.62E-04    0.11E-05
   2      9     8.867    52.185    0.23E-03    0.62E-04    0.11E-05
   0     10     8.867   103.837    0.15E-04    0.23E-04    0.98E-07
   0     10     8.867    59.728    0.12E-04    0.21E-04    0.89E-07
   1     10     8.867    13.958    0.50E-04    0.22E-04    0.14E-06
   1     10     8.867     8.441    0.36E-04    0.19E-04    0.98E-07
 Optimization of the real space projectors (new method)

 maximal supplied QI-value         = 12.47
 optimisation between [QCUT,QGAM] = [  8.86, 17.71] = [ 21.96, 87.83] Ry 
 Optimized for a Real-space Cutoff    1.90 Angstroem

   l    n(q)    QCUT    max X(q) W(low)/X(q) W(high)/X(q)  e(spline) 
   2      9     8.855    48.111    0.22E-03    0.80E-04    0.10E-05
   2      9     8.855    40.545    0.21E-03    0.76E-04    0.95E-06
   0     10     8.855   121.658    0.27E-04    0.12E-04    0.11E-06
   0     10     8.855    71.177    0.22E-04    0.11E-04    0.99E-07
   1     10     8.855    14.183    0.65E-04    0.10E-03    0.98E-07
   1     10     8.855     8.257    0.43E-04    0.73E-04    0.72E-07
 Optimization of the real space projectors (new method)

 maximal supplied QI-value         = 15.68
 optimisation between [QCUT,QGAM] = [  8.78, 17.72] = [ 21.60, 87.97] Ry 
 Optimized for a Real-space Cutoff    1.96 Angstroem

   l    n(q)    QCUT    max X(q) W(low)/X(q) W(high)/X(q)  e(spline) 
   0     10     8.783    10.201    0.29E-04    0.25E-05    0.69E-07
   0     10     8.783     8.174    0.45E-04    0.57E-05    0.14E-06
   1     10     8.783     3.488    0.76E-05    0.24E-04    0.95E-07
   1     10     8.783     4.917    0.78E-04    0.14E-03    0.46E-06
   2      9     8.783   153.744    0.22E-03    0.34E-04    0.15E-05
   2      9     8.783   126.342    0.22E-03    0.35E-04    0.15E-05
 Optimization of the real space projectors (new method)

 maximal supplied QI-value         = 15.12
 optimisation between [QCUT,QGAM] = [  8.77, 17.69] = [ 21.53, 87.61] Ry 
 Optimized for a Real-space Cutoff    1.74 Angstroem

   l    n(q)    QCUT    max X(q) W(low)/X(q) W(high)/X(q)  e(spline) 
   0      9     8.768    12.107    0.28E-04    0.53E-06    0.29E-07
   0      9     8.768     9.948    0.36E-04    0.50E-05    0.64E-07
   1      9     8.768     3.563    0.14E-04    0.16E-04    0.88E-07
   1      9     8.768     4.524    0.21E-03    0.33E-03    0.19E-06
   2      8     8.768    87.261    0.19E-03    0.25E-03    0.24E-06
   2      8     8.768    70.950    0.19E-03    0.24E-03    0.24E-06
  PAW_PBE Ta 17Jan2003                  :
 energy of atom  1       EATOM= -130.6506
 kinetic energy error for atom=    0.0121 (will be added to EATOM!!)
  PAW_PBE Hf 20Jan2003                  :
 energy of atom  2       EATOM=  -75.9011
 kinetic energy error for atom=    0.0071 (will be added to EATOM!!)
  PAW_PBE Nb_sv 25May2007               :
 energy of atom  3       EATOM=-1555.1913
 kinetic energy error for atom=    0.0655 (will be added to EATOM!!)
  PAW_PBE Zr_sv 04Jan2005               :
 energy of atom  4       EATOM=-1284.2219
 kinetic energy error for atom=    0.0483 (will be added to EATOM!!)
 
 
 POSCAR: generated by pypospack                  
  positions in direct lattice
  No initial velocities read in
 exchange correlation table for  LEXCH =        8
   RHO(1)=    0.500       N(1)  =     2000
   RHO(2)=  100.500       N(2)  =     4000
 


--------------------------------------------------------------------------------------------------------


 ion  position               nearest neighbor table
   1  0.742  0.830  0.830-  21 2.78  32 2.84   6 2.87  17 2.89  14 2.90   9 2.91  11 2.98  29 3.02
                            33 3.38  10 3.42   2 3.51
   2  0.757  0.838  0.170-   3 2.78  17 2.91  16 2.92  11 2.97  18 2.99   9 3.01  29 3.01  26 3.01
                            13 3.32   5 3.41  33 3.45   7 3.45   1 3.51
   3  0.992  0.989  0.326-   5 2.77   2 2.78   8 2.82  33 2.93  13 2.97  36 3.01  35 3.04  27 3.05
                            16 3.37  18 3.42  11 3.42  18 3.64  14 3.70  25 3.71
   4  0.285  0.495  0.143-  23 2.70   9 2.84  26 2.97  29 3.04  30 3.05  20 3.07  16 3.07   7 3.08
                            25 3.09  34 3.19  35 3.45
   5  0.241  0.849  0.175-   3 2.77  16 2.84  17 2.88  18 2.95  11 2.96  26 2.99  29 3.07   9 3.18
                            35 3.21   2 3.41  36 3.45
   6  0.514  0.997  0.668-  10 2.85   1 2.87  28 2.97  22 2.98  33 3.03  36 3.06   8 3.12  27 3.16
                            14 3.27  18 3.37  32 3.38  17 3.42  19 3.43
   7  0.722  0.503  0.152-  23 2.71   9 2.82  26 2.97  20 2.98  30 3.01  25 3.02  29 3.03  16 3.07
                             4 3.08  24 3.20   2 3.45  13 3.52  31 3.67
   8  0.778  0.155  0.486-   3 2.82  14 2.89  18 2.91  12 2.94  30 3.04  19 3.05  25 3.11   6 3.12
                            27 3.17  13 3.30  33 3.36  31 3.74
   9  0.505  0.674  0.998-   7 2.82   4 2.84  24 2.89   1 2.91   2 3.01  22 3.02  34 3.04  17 3.10
                             5 3.18  32 3.36  26 3.39  29 3.49  29 3.56
  10  0.709  0.162  0.847-  23 2.81   6 2.85  17 2.91  19 2.92  12 2.97  14 3.00  11 3.01  20 3.04
                            28 3.06  13 3.31   1 3.42
  11  0.993  0.998  0.995-   5 2.96   2 2.97   1 2.98  10 3.01  13 3.02  35 3.03  22 3.09  28 3.19
                            14 3.22  29 3.40   3 3.42  20 3.47  17 3.52  17 3.54
  12  0.965  0.320  0.682-   8 2.94  10 2.97  24 3.00  31 3.01  28 3.05  19 3.07  27 3.08  34 3.13
                            15 3.16  14 3.20  20 3.27  25 3.81
  13  0.743  0.161  0.167-   3 2.97  18 3.00  23 3.02  11 3.02  20 3.02  30 3.05  25 3.06  17 3.11
                             8 3.30  10 3.31   2 3.32  35 3.47   7 3.52  35 3.57
  14  0.977  0.008  0.684-   8 2.89   1 2.90  33 2.99  22 2.99  10 3.00  28 3.07  27 3.07  36 3.15
                            12 3.20  11 3.22   6 3.27  21 3.43   3 3.70
  15  0.229  0.502  0.516-  25 3.03  32 3.06  21 3.06  16 3.09  19 3.10  31 3.11  12 3.16  30 3.18
                            26 3.23  34 3.30  36 3.39  27 3.45
  16  0.017  0.662  0.306-   5 2.84   2 2.92  31 3.01   4 3.07   7 3.07  15 3.09  36 3.12  29 3.15
                            33 3.19  25 3.21  26 3.36   3 3.37  26 3.70
  17  0.494  0.975  0.998-   5 2.88   1 2.89  22 2.89   2 2.91  10 2.91  28 3.07   9 3.10  13 3.11
                            35 3.12   6 3.42  11 3.52  11 3.54  18 3.56
  18  0.508  0.995  0.342-   8 2.91   5 2.95   2 2.99  13 3.00  33 3.01  35 3.06  36 3.08  27 3.13
                            26 3.35   6 3.37   3 3.42  30 3.50  17 3.56   3 3.64
  19  0.531  0.330  0.653-  10 2.92  24 3.03  28 3.04   8 3.05  12 3.07  31 3.08  15 3.10  27 3.12
                            34 3.20  30 3.22   6 3.43  32 3.48
  20  0.982  0.336  0.999-  24 2.92   7 2.98  13 3.02  10 3.04  34 3.06   4 3.07  35 3.12  28 3.21
                            12 3.27  25 3.28  23 3.31  29 3.42  11 3.47
  21  0.996  0.675  0.695-  22 2.73   1 2.78  31 2.91  24 2.94  34 2.97  33 2.97  36 3.05  15 3.06
                            29 3.17  14 3.43  32 3.44
  22  0.251  0.832  0.821-  21 2.73  17 2.89  32 2.92   6 2.98  14 2.99   9 3.02  11 3.09  29 3.09
                            36 3.23  34 3.47
  23  0.513  0.343  0.999-   4 2.70   7 2.71  10 2.81  24 2.83  34 2.91  28 2.99  13 3.02  35 3.17
                            20 3.31
  24  0.739  0.506  0.842-  23 2.83   9 2.89  32 2.90  20 2.92  21 2.94  29 2.96  12 3.00  19 3.03
                             7 3.20  34 3.41
  25  0.001  0.350  0.316-   7 3.02  31 3.02  15 3.03  35 3.04  13 3.06   4 3.09   8 3.11  27 3.11
                            16 3.21  20 3.28  30 3.49  30 3.59   3 3.71  12 3.81
  26  0.494  0.670  0.325-   7 2.97   4 2.97   5 2.99   2 3.01  36 3.12  33 3.12  31 3.17  15 3.23
                            18 3.35  16 3.36   9 3.39  30 3.43  32 3.58  16 3.70
  27  0.228  0.167  0.502-   3 3.05  14 3.07  12 3.08  25 3.11  19 3.12  30 3.13  18 3.13   6 3.16
                             8 3.17  28 3.38  36 3.44  15 3.45  35 3.45
  28  0.276  0.172  0.828-   6 2.97  23 2.99  19 3.04  12 3.05  10 3.06  14 3.07  17 3.07  11 3.19
                            20 3.21  34 3.32  27 3.38  35 3.52
  29  0.000  0.668  0.002-  24 2.96   2 3.01   1 3.02   7 3.03   4 3.04  34 3.07   5 3.07  22 3.09
                            16 3.15  21 3.17  11 3.40  20 3.42   9 3.49   9 3.56
  30  0.509  0.336  0.341-   7 3.01   8 3.04  13 3.05   4 3.05  35 3.11  27 3.13  15 3.18  31 3.19
                            19 3.22  26 3.43  25 3.49  18 3.50  25 3.59
  31  0.788  0.519  0.505-  21 2.91  12 3.01  16 3.01  25 3.02  32 3.06  19 3.08  15 3.11  26 3.17
                            33 3.18  30 3.19   7 3.67   8 3.74
  32  0.508  0.668  0.673-   1 2.84  24 2.90  22 2.92  34 3.04  33 3.04  36 3.05  31 3.06  15 3.06
                             9 3.36   6 3.38  21 3.44  19 3.48  26 3.58
  33  0.770  0.828  0.504-   3 2.93  21 2.97  14 2.99  18 3.01   6 3.03  32 3.04  26 3.12  31 3.18
                            16 3.19  36 3.29   8 3.36   1 3.38   2 3.45  36 3.76
  34  0.256  0.495  0.835-  23 2.91  21 2.97   9 3.04  32 3.04  20 3.06  29 3.07  12 3.13   4 3.19
                            19 3.20  15 3.30  28 3.32  24 3.41  22 3.47
  35  0.250  0.161  0.168-  11 3.03   3 3.04  25 3.04  18 3.06  30 3.11  17 3.12  20 3.12  23 3.17
                             5 3.21   4 3.45  27 3.45  13 3.47  28 3.52  13 3.57
  36  0.237  0.832  0.508-   3 3.01  21 3.05  32 3.05   6 3.06  18 3.08  16 3.12  26 3.12  14 3.15
                            22 3.23  33 3.29  15 3.39  27 3.44   5 3.45  33 3.76
 
  LATTYP: Found a triclinic cell.
 ALAT       =    20.3697891731
 B/A-ratio  =     0.3460694903
 C/A-ratio  =     0.5043684645
 COS(alpha) =     0.0003340095
 COS(beta)  =     0.5049888311
 COS(gamma) =     0.6987992885
  
  Lattice vectors:
  
 A1 = ( -14.1668752247, -10.2800838389,  10.4186291608)
 A2 = (  -7.0492202999,  -0.0011223698,   0.0447700823)
 A3 = (  -0.0017708500, -10.2738783812,   0.0039357766)


Analysis of symmetry for initial positions (statically):
=====================================================================
 Subroutine PRICEL returns:
 Original cell was already a primitive cell.
 

 Routine SETGRP: Setting up the symmetry group for a 
 triclinic supercell.


 Subroutine GETGRP returns: Found  1 space group operations
 (whereof  1 operations were pure point group operations)
 out of a pool of  2 trial point group operations.


The static configuration has the point symmetry C_1 .


Analysis of symmetry for dynamics (positions and initial velocities):
=====================================================================
 Subroutine PRICEL returns:
 Original cell was already a primitive cell.
 

 Routine SETGRP: Setting up the symmetry group for a 
 triclinic supercell.


 Subroutine GETGRP returns: Found  1 space group operations
 (whereof  1 operations were pure point group operations)
 out of a pool of  2 trial point group operations.


The dynamic configuration has the point symmetry C_1 .


 Subroutine INISYM returns: Found  1 space group operations
 (whereof  1 operations are pure point group operations),
 and found     1 'primitive' translations

 
 
 KPOINTS: k-points                                

Automatic generation of k-mesh.
Space group operators:
 irot       det(A)        alpha          n_x          n_y          n_z        tau_x        tau_y        tau_z
    1     1.000000     0.000000     1.000000     0.000000     0.000000     0.000000     0.000000     0.000000
 
 Subroutine IBZKPT returns following result:
 ===========================================
 
 Found     14 irreducible k-points:
 
 Following reciprocal coordinates:
            Coordinates               Weight
  0.000000  0.000000  0.000000      1.000000
  0.333333  0.000000  0.000000      2.000000
 -0.000000  0.333333  0.000000      2.000000
  0.333333  0.333333  0.000000      2.000000
 -0.333333  0.333333 -0.000000      2.000000
  0.000000  0.000000  0.333333      2.000000
  0.333333  0.000000  0.333333      2.000000
 -0.333333 -0.000000  0.333333      2.000000
  0.000000  0.333333  0.333333      2.000000
  0.333333  0.333333  0.333333      2.000000
 -0.333333  0.333333  0.333333      2.000000
  0.000000 -0.333333  0.333333      2.000000
  0.333333 -0.333333  0.333333      2.000000
 -0.333333 -0.333333  0.333333      2.000000
 
 Following cartesian coordinates:
            Coordinates               Weight
  0.000000  0.000000  0.000000      1.000000
  0.235890 -0.000040  0.001523      2.000000
 -0.000025  0.161844  0.000062      2.000000
  0.235864  0.161804  0.001585      2.000000
 -0.235915  0.161885 -0.001461      2.000000
  0.001023  0.000062  0.161047      2.000000
  0.236912  0.000021  0.162570      2.000000
 -0.234867  0.000102  0.159524      2.000000
  0.000997  0.161906  0.161109      2.000000
  0.236887  0.161866  0.162632      2.000000
 -0.234892  0.161946  0.159586      2.000000
  0.001048 -0.161783  0.160985      2.000000
  0.236938 -0.161823  0.162508      2.000000
 -0.234841 -0.161743  0.159462      2.000000
 


--------------------------------------------------------------------------------------------------------




 Dimension of arrays:
   k-points           NKPTS =     14   k-points in BZ     NKDIM =     14   number of bands    NBANDS=    172
   number of dos      NEDOS =    301   number of ions     NIONS =     36
   non local maximal  LDIM  =      6   non local SUM 2l+1 LMDIM =     18
   total plane-waves  NPLWV = 144000
   max r-space proj   IRMAX =   6128   max aug-charges    IRDMAX=  13307
   dimension x,y,z NGX =    40 NGY =   60 NGZ =   60
   dimension x,y,z NGXF=    80 NGYF=  120 NGZF=  120
   support grid    NGXF=    80 NGYF=  120 NGZF=  120
   ions per type =              10  10   4  12
 NGX,Y,Z   is equivalent  to a cutoff of   9.43,  9.71,  9.66 a.u.
 NGXF,Y,Z  is equivalent  to a cutoff of  18.87, 19.42, 19.32 a.u.


 I would recommend the setting:
   dimension x,y,z NGX =    40 NGY =   58 NGZ =   58
 SYSTEM =  automatically generated by mexm         
 POSCAR =  generated by pypospack                  

 Startparameter for this run:
   NWRITE =      2    write-flag & timer
   PREC   = accura    normal or accurate (medium, high low for compatibility)
   ISTART =      0    job   : 0-new  1-cont  2-samecut
   ICHARG =      2    charge: 1-file 2-atom 10-const
   ISPIN  =      1    spin polarized calculation?
   LNONCOLLINEAR =      F non collinear calculations
   LSORBIT =      F    spin-orbit coupling
   INIWAV =      1    electr: 0-lowe 1-rand  2-diag
   LASPH  =      F    aspherical Exc in radial PAW
   METAGGA=      F    non-selfconsistent MetaGGA calc.

 Electronic Relaxation 1
   ENCUT  =  300.0 eV  22.05 Ry    4.70 a.u.   9.96 14.51 14.58*2*pi/ulx,y,z
   ENINI  =  300.0     initial cutoff
   ENAUG  =  461.3 eV  augmentation charge cutoff
   NELM   =     70;   NELMIN=  2; NELMDL= -5     # of ELM steps 
   EDIFF  = 0.1E-04   stopping-criterion for ELM
   LREAL  =      T    real-space projection
   NLSPLINE    = F    spline interpolate recip. space projectors
   LCOMPAT=      F    compatible to vasp.4.4
   GGA_COMPAT  = T    GGA compatible to vasp.4.4-vasp.4.6
   LMAXPAW     = -100 max onsite density
   LMAXMIX     =    2 max onsite mixed and CHGCAR
   VOSKOWN=      0    Vosko Wilk Nusair interpolation
   ROPT   =   -0.00025  -0.00025  -0.00025  -0.00025
 Ionic relaxation
   EDIFFG = -.1E-01   stopping-criterion for IOM
   NSW    =    300    number of steps for IOM
   NBLOCK =      1;   KBLOCK =    300    inner block; outer block 
   IBRION =      2    ionic relax: 0-MD 1-quasi-New 2-CG
   NFREE  =      1    steps in history (QN), initial steepest desc. (CG)
   ISIF   =      3    stress and relaxation
   IWAVPR =     11    prediction:  0-non 1-charg 2-wave 3-comb
   ISYM   =      1    0-nonsym 1-usesym 2-fastsym
   LCORR  =      T    Harris-Foulkes like correction to forces

   POTIM  = 0.1500    time-step for ionic-motion
   TEIN   =    0.0    initial temperature
   TEBEG  =    0.0;   TEEND  =   0.0 temperature during run
   SMASS  =  -3.00    Nose mass-parameter (am)
   estimated Nose-frequenzy (Omega)   =  0.10E-29 period in steps =****** mass=  -0.114E-26a.u.
   SCALEE = 1.0000    scale energy and forces
   NPACO  =    256;   APACO  = 16.0  distance and # of slots for P.C.
   PSTRESS=    0.0 pullay stress

  Mass of Ions in am
   POMASS = 180.95178.49 92.91 91.22
  Ionic Valenz
   ZVAL   =   5.00  4.00 13.00 12.00
  Atomic Wigner-Seitz radii
   RWIGS  =  -1.00 -1.00 -1.00 -1.00
  virtual crystal weights 
   VCA    =   1.00  1.00  1.00  1.00
   NELECT =     286.0000    total number of electrons
   NUPDOWN=      -1.0000    fix difference up-down

 DOS related values:
   EMIN   =  10.00;   EMAX   =-10.00  energy-range for DOS
   EFERMI =   0.00
   ISMEAR =     1;   SIGMA  =   0.15  broadening in eV -4-tet -1-fermi 0-gaus

 Electronic relaxation 2 (details)
   IALGO  =     68    algorithm
   LDIAG  =      T    sub-space diagonalisation (order eigenvalues)
   LSUBROT=      F    optimize rotation matrix (better conditioning)
   TURBO    =      0    0=normal 1=particle mesh
   IRESTART =      0    0=no restart 2=restart with 2 vectors
   NREBOOT  =      0    no. of reboots
   NMIN     =      0    reboot dimension
   EREF     =   0.00    reference energy to select bands
   IMIX   =      4    mixing-type and parameters
     AMIX     =   0.40;   BMIX     =  1.00
     AMIX_MAG =   1.60;   BMIX_MAG =  1.00
     AMIN     =   0.10
     WC   =   100.;   INIMIX=   1;  MIXPRE=   1;  MAXMIX= -45

 Intra band minimization:
   WEIMIN = 0.0010     energy-eigenvalue tresh-hold
   EBREAK =  0.15E-07  absolut break condition
   DEPER  =   0.30     relativ break condition  

   TIME   =   0.40     timestep for ELM

  volume/ion in A,a.u.               =      20.77       140.17
  Fermi-wavevector in a.u.,A,eV,Ry     =   1.188353  2.245662 19.213914  1.412183
  Thomas-Fermi vector in A             =   2.324484
 
 Write flags
   LWAVE  =      F    write WAVECAR
   LCHARG =      F    write CHGCAR
   LVTOT  =      F    write LOCPOT, total local potential
   LVHAR  =      F    write LOCPOT, Hartree potential only
   LELF   =      F    write electronic localiz. function (ELF)
   LORBIT =      0    0 simple, 1 ext, 2 COOP (PROOUT)


 Dipole corrections
   LMONO  =      F    monopole corrections only (constant potential shift)
   LDIPOL =      F    correct potential (dipole corrections)
   IDIPOL =      0    1-x, 2-y, 3-z, 4-all directions 
   EPSILON=  1.0000000 bulk dielectric constant

 Exchange correlation treatment:
   GGA     =    --    GGA type
   LEXCH   =     8    internal setting for exchange type
   VOSKOWN=      0    Vosko Wilk Nusair interpolation
   LHFCALC =     F    Hartree Fock is set to
   LHFONE  =     F    Hartree Fock one center treatment
   AEXX    =    0.0000 exact exchange contribution

 Linear response parameters
   LEPSILON=     F    determine dielectric tensor
   LRPA    =     F    only Hartree local field effects (RPA)
   LNABLA  =     F    use nabla operator in PAW spheres
   LVEL    =     F    velocity operator in full k-point grid
   LINTERFAST=   F  fast interpolation
   KINTER  =     0    interpolate to denser k-point grid
   CSHIFT  =0.1000    complex shift for real part using Kramers Kronig
   OMEGAMAX=  -1.0    maximum frequency
   DEG_THRESHOLD= 0.2000000E-02 threshold for treating states as degnerate
   RTIME   =    0.100 relaxation time in fs

 Orbital magnetization related:
   ORBITALMAG=     F  switch on orbital magnetization
   LCHIMAG   =     F  perturbation theory with respect to B field
   DQ        =  0.001000  dq finite difference perturbation B field



--------------------------------------------------------------------------------------------------------


 conjugate gradient relaxation of ions
 charge density and potential will be updated during run
 non-spin polarized calculation
 RMM-DIIS sequential band-by-band and
  variant of blocked Davidson during initial phase
 perform sub-space diagonalisation
    before iterative eigenvector-optimisation
 modified Broyden-mixing scheme, WC =      100.0
 initial mixing is a Kerker type mixing with AMIX =  0.4000 and BMIX =      1.0000
 Hartree-type preconditioning will be used
 using additional bands           29
 real space projection scheme for non local part
 use partial core corrections
 calculate Harris-corrections to forces 
   (improved forces if not selfconsistent)
 use gradient corrections 
 use of overlap-Matrix (Vanderbilt PP)
 Methfessel and Paxton  Order N= 1 SIGMA  =   0.15


--------------------------------------------------------------------------------------------------------


  energy-cutoff  :      300.00
  volume of cell :      747.75
      direct lattice vectors                 reciprocal lattice vectors
     7.049220300  0.001122370 -0.044770082     0.141865482 -0.000024102  0.000915937
     0.001770850 10.273878381 -0.003935777    -0.000015261  0.097334243  0.000037239
    -0.066663775 -0.003960718 10.325153220     0.000615126  0.000036998  0.096854849

  length of vectors
     7.049362557 10.273879288 10.325369183     0.141868441  0.097334251  0.096856809


 
 k-points in units of 2pi/SCALE and weight: k-points                                
   0.00000000  0.00000000  0.00000000       0.037
   0.23588967 -0.00004008  0.00152299       0.074
  -0.00002538  0.16184446  0.00006192       0.074
   0.23586429  0.16180438  0.00158491       0.074
  -0.23591504  0.16188453 -0.00146107       0.074
   0.00102281  0.00006152  0.16104734       0.074
   0.23691248  0.00002144  0.16257033       0.074
  -0.23486685  0.00010159  0.15952434       0.074
   0.00099744  0.16190598  0.16110926       0.074
   0.23688710  0.16186590  0.16263225       0.074
  -0.23489223  0.16194605  0.15958626       0.074
   0.00104819 -0.16178294  0.16098542       0.074
   0.23693786 -0.16182302  0.16250841       0.074
  -0.23484148 -0.16174286  0.15946242       0.074
 
 k-points in reciprocal lattice and weights: k-points                                
   0.00000000  0.00000000  0.00000000       0.037
   0.33333333  0.00000000  0.00000000       0.074
  -0.00000000  0.33333333  0.00000000       0.074
   0.33333333  0.33333333  0.00000000       0.074
  -0.33333333  0.33333333 -0.00000000       0.074
   0.00000000  0.00000000  0.33333333       0.074
   0.33333333  0.00000000  0.33333333       0.074
  -0.33333333 -0.00000000  0.33333333       0.074
   0.00000000  0.33333333  0.33333333       0.074
   0.33333333  0.33333333  0.33333333       0.074
  -0.33333333  0.33333333  0.33333333       0.074
   0.00000000 -0.33333333  0.33333333       0.074
   0.33333333 -0.33333333  0.33333333       0.074
  -0.33333333 -0.33333333  0.33333333       0.074
 
 position of ions in fractional coordinates (direct lattice) 
   0.74249900  0.83041700  0.83009200
   0.75650900  0.83760100  0.16976800
   0.99170700  0.98897400  0.32609800
   0.28501200  0.49528400  0.14306300
   0.24059600  0.84885800  0.17474300
   0.51446000  0.99694300  0.66821000
   0.72239500  0.50261700  0.15219300
   0.77830400  0.15488100  0.48629100
   0.50465100  0.67394600  0.99776800
   0.70945900  0.16202800  0.84681000
   0.99292200  0.99826500  0.99486000
   0.96503900  0.31966400  0.68230700
   0.74336500  0.16105800  0.16700000
   0.97731600  0.00789600  0.68361500
   0.22850700  0.50190800  0.51582600
   0.01686400  0.66210700  0.30638200
   0.49409300  0.97539000  0.99812300
   0.50811800  0.99513400  0.34214400
   0.53074300  0.33000500  0.65293700
   0.98182100  0.33551200  0.99880000
   0.99553800  0.67481200  0.69494800
   0.25075900  0.83211400  0.82086800
   0.51281000  0.34323400  0.99851000
   0.73947200  0.50601600  0.84231000
   0.00128000  0.35012700  0.31620500
   0.49352900  0.66957100  0.32546600
   0.22795200  0.16681800  0.50169100
   0.27582100  0.17159600  0.82814800
   0.00011200  0.66766800  0.00160500
   0.50907300  0.33619800  0.34142400
   0.78830800  0.51882400  0.50472700
   0.50825200  0.66803800  0.67261300
   0.77012600  0.82841700  0.50360400
   0.25559200  0.49455100  0.83477900
   0.25043400  0.16135800  0.16778000
   0.23656000  0.83217500  0.50830200
 
 position of ions in cartesian coordinates  (Angst):
   5.18017250  8.52914886  8.53431701
   5.32296449  8.60558749  1.71571503
   6.97077352 10.16042008  3.31872063
   2.00045233  5.08824084  1.46243806
   1.68586838  8.72064178  1.79013583
   3.58376191 10.24040196  6.87241447
   5.08306580  5.16403393  1.53709617
   5.45429263  1.59017604  4.98557477
   3.49207455  6.92065377 10.27686171
   4.94496816  1.66209827  8.71104275
   6.93477257 10.25322727 10.22369978
   6.75785343  3.28256976  7.00046132
   5.22929601  1.65486319  1.69038619
   6.84375741  0.07951185  7.01464402
   1.57729808  5.15475518  5.31377681
   0.09962596  6.80121223  3.16008019
   3.41815903 10.01763951 10.27981341
   3.56078934 10.22310085  3.50602411
   3.69838147  3.38844083  6.71661433
   6.85508289  3.44415548 10.26748633
   6.97263381  6.93130129  7.12821835
   1.71440682  8.54606825  8.46108636
   3.54895403  3.52296512 10.28545930
   5.15744555  5.19624065  8.66188202
  -0.01143639  3.59591125  3.26342975
   3.45848356  6.87835586  3.33575570
   1.57373466  1.71213663  5.16917446
   1.88941939  1.75998595  8.53773110
   0.00186486  6.85953360  0.01393906
   3.56640247  3.45327645  3.50114067
   5.52422851  5.32922037  5.17404902
   3.53912439  6.86124758  6.91944855
   5.39668269  8.50992524  5.16204939
   1.74695057  5.07793737  8.60583176
   1.75446533  1.65738902  1.72050719
   1.63515188  8.54791701  5.23442997
 


--------------------------------------------------------------------------------------------------------


 k-point  1 :   0.0000 0.0000 0.0000  plane waves:    8817
 k-point  2 :   0.3333 0.0000 0.0000  plane waves:    8840
 k-point  3 :  -0.0000 0.3333 0.0000  plane waves:    8808
 k-point  4 :   0.3333 0.3333 0.0000  plane waves:    8831
 k-point  5 :  -0.3333 0.3333-0.0000  plane waves:    8828
 k-point  6 :   0.0000 0.0000 0.3333  plane waves:    8831
 k-point  7 :   0.3333 0.0000 0.3333  plane waves:    8817
 k-point  8 :  -0.3333-0.0000 0.3333  plane waves:    8830
 k-point  9 :   0.0000 0.3333 0.3333  plane waves:    8788
 k-point 10 :   0.3333 0.3333 0.3333  plane waves:    8840
 k-point 11 :  -0.3333 0.3333 0.3333  plane waves:    8819
 k-point 12 :   0.0000-0.3333 0.3333  plane waves:    8791
 k-point 13 :   0.3333-0.3333 0.3333  plane waves:    8840
 k-point 14 :  -0.3333-0.3333 0.3333  plane waves:    8822

 maximum and minimum number of plane-waves per node :      1784     1734

 maximum number of plane-waves:      8840
 maximum index in each direction: 
   IXMAX=   10   IYMAX=   14   IZMAX=   14
   IXMIN=  -10   IYMIN=  -14   IZMIN=  -14

 WARNING: aliasing errors must be expected set NGX to  42 to avoid them
 NGY is ok and might be reduce to  58
 NGZ is ok and might be reduce to  58
 aliasing errors are usually negligible using standard VASP settings
 and one can safely disregard these warnings

 real space projection operators:
  total allocation   :      25471.12 KBytes
  max/ min on nodes  :       5155.31       5024.53


 parallel 3D FFT for wavefunctions:
    minimum data exchange during FFTs selected (reduces bandwidth)
 parallel 3D FFT for charge:
    minimum data exchange during FFTs selected (reduces bandwidth)


 total amount of memory used by VASP on root node    66751. kBytes
========================================================================

   base      :      30000. kBytes
   nonlr-proj:       9922. kBytes
   fftplans  :       2814. kBytes
   grid      :       5360. kBytes
   one-center:        124. kBytes
   wavefun   :      18531. kBytes
 
     INWAV:  cpu time    0.0000: real time    0.0000
 Broyden mixing: mesh for mixing (old mesh)
   NGX = 19   NGY = 29   NGZ = 29
  (NGX  = 80   NGY  =120   NGZ  =120)
  gives a total of  15979 points

 initial charge density was supplied:
 charge density of overlapping atoms calculated
 number of electron     286.0000000 magnetization 
 keeping initial charge density in first step


--------------------------------------------------------------------------------------------------------


 Maximum index for non-local projection operator         1183
 Maximum index for augmentation-charges          671 (set IRDMAX)


--------------------------------------------------------------------------------------------------------


 First call to EWALD:  gamma=   0.195
 Maximum number of real-space cells 3x 2x 2
 Maximum number of reciprocal cells 2x 3x 3

 FEWALD executed in parallel
    FEWALD:  cpu time    0.0348: real time    0.0349


----------------------------------------- Iteration    1(   1)  ---------------------------------------


    POTLOK:  cpu time    0.0528: real time    0.0850
    SETDIJ:  cpu time    0.0793: real time    0.0796
     EDDAV:  cpu time    1.0165: real time    1.0467
       DOS:  cpu time    0.0112: real time    0.0113
    --------------------------------------------
      LOOP:  cpu time    1.1672: real time    1.4453

 eigenvalue-minimisations  :  5208
 total energy-change (2. order) : 0.1732561E+04  (-0.1052897E+05)
 number of electron     286.0000000 magnetization 
 augmentation part      286.0000000 magnetization 

 Free energy of the ion-electron system (eV)
  ---------------------------------------------------
  alpha Z        PSCENC =      1423.51334642
  Ewald energy   TEWEN  =    -18107.13453801
  -Hartree energ DENC   =     -6443.68960580
  -exchange      EXHF   =         0.00000000
  -V(xc)+E(xc)   XCENC  =      -371.42649785
  PAW double counting   =     20112.21527367   -18481.24915609
  entropy T*S    EENTRO =         0.00954024
  eigenvalues    EBANDS =       -95.58845865
  atomic energy  EATOM  =     23695.91158506
  Solvation  Ediel_sol  =         0.00000000
  ---------------------------------------------------
  free energy    TOTEN  =      1732.56148898 eV

  energy without entropy =     1732.55194874  energy(sigma->0) =     1732.55830890


--------------------------------------------------------------------------------------------------------




----------------------------------------- Iteration    1(   2)  ---------------------------------------


     EDDAV:  cpu time    1.0162: real time    1.0289
       DOS:  cpu time    0.0013: real time    0.0013
    --------------------------------------------
      LOOP:  cpu time    1.0182: real time    1.1404

 eigenvalue-minimisations  :  5216
 total energy-change (2. order) :-0.1812816E+04  (-0.1737483E+04)
 number of electron     286.0000000 magnetization 
 augmentation part      286.0000000 magnetization 

 Free energy of the ion-electron system (eV)
  ---------------------------------------------------
  alpha Z        PSCENC =      1423.51334642
  Ewald energy   TEWEN  =    -18107.13453801
  -Hartree energ DENC   =     -6443.68960580
  -exchange      EXHF   =         0.00000000
  -V(xc)+E(xc)   XCENC  =      -371.42649785
  PAW double counting   =     20112.21527367   -18481.24915609
  entropy T*S    EENTRO =         0.00124521
  eigenvalues    EBANDS =     -1908.39654240
  atomic energy  EATOM  =     23695.91158506
  Solvation  Ediel_sol  =         0.00000000
  ---------------------------------------------------
  free energy    TOTEN  =       -80.25488980 eV

  energy without entropy =      -80.25613501  energy(sigma->0) =      -80.25530487


--------------------------------------------------------------------------------------------------------




----------------------------------------- Iteration    1(   3)  ---------------------------------------


     EDDAV:  cpu time    1.4678: real time    1.4798
       DOS:  cpu time    0.0017: real time    0.0017
    --------------------------------------------
      LOOP:  cpu time    1.4698: real time    1.5142

 eigenvalue-minimisations  :  8096
 total energy-change (2. order) :-0.2557698E+03  (-0.2421403E+03)
 number of electron     286.0000000 magnetization 
 augmentation part      286.0000000 magnetization 

 Free energy of the ion-electron system (eV)
  ---------------------------------------------------
  alpha Z        PSCENC =      1423.51334642
  Ewald energy   TEWEN  =    -18107.13453801
  -Hartree energ DENC   =     -6443.68960580
  -exchange      EXHF   =         0.00000000
  -V(xc)+E(xc)   XCENC  =      -371.42649785
  PAW double counting   =     20112.21527367   -18481.24915609
  entropy T*S    EENTRO =        -0.00776391
  eigenvalues    EBANDS =     -2164.15732300
  atomic energy  EATOM  =     23695.91158506
  Solvation  Ediel_sol  =         0.00000000
  ---------------------------------------------------
  free energy    TOTEN  =      -336.02467952 eV

  energy without entropy =     -336.01691561  energy(sigma->0) =     -336.02209155


--------------------------------------------------------------------------------------------------------




----------------------------------------- Iteration    1(   4)  ---------------------------------------


     EDDAV:  cpu time    1.3309: real time    1.4150
       DOS:  cpu time    0.0014: real time    0.0014
    --------------------------------------------
      LOOP:  cpu time    1.3328: real time    1.4400

 eigenvalue-minimisations  :  8224
 total energy-change (2. order) :-0.3275949E+02  (-0.3127240E+02)
 number of electron     286.0000000 magnetization 
 augmentation part      286.0000000 magnetization 

 Free energy of the ion-electron system (eV)
  ---------------------------------------------------
  alpha Z        PSCENC =      1423.51334642
  Ewald energy   TEWEN  =    -18107.13453801
  -Hartree energ DENC   =     -6443.68960580
  -exchange      EXHF   =         0.00000000
  -V(xc)+E(xc)   XCENC  =      -371.42649785
  PAW double counting   =     20112.21527367   -18481.24915609
  entropy T*S    EENTRO =         0.01196313
  eigenvalues    EBANDS =     -2196.93653606
  atomic energy  EATOM  =     23695.91158506
  Solvation  Ediel_sol  =         0.00000000
  ---------------------------------------------------
  free energy    TOTEN  =      -368.78416553 eV

  energy without entropy =     -368.79612867  energy(sigma->0) =     -368.78815325


--------------------------------------------------------------------------------------------------------




----------------------------------------- Iteration    1(   5)  ---------------------------------------


     EDDAV:  cpu time    1.1976: real time    1.3506
       DOS:  cpu time    0.0013: real time    0.0013
    CHARGE:  cpu time    0.0317: real time    0.0322
    MIXING:  cpu time    0.0016: real time    0.0016
    --------------------------------------------
      LOOP:  cpu time    1.2328: real time    1.4125

 eigenvalue-minimisations  :  7512
 total energy-change (2. order) :-0.3437834E+01  (-0.3351242E+01)
 number of electron     286.0000008 magnetization 
 augmentation part       12.5508106 magnetization 

 Broyden mixing:
  rms(total) = 0.65687E+01    rms(broyden)= 0.65684E+01
  rms(prec ) = 0.68519E+01
  weight for this iteration     100.00

 Free energy of the ion-electron system (eV)
  ---------------------------------------------------
  alpha Z        PSCENC =      1423.51334642
  Ewald energy   TEWEN  =    -18107.13453801
  -Hartree energ DENC   =     -6443.68960580
  -exchange      EXHF   =         0.00000000
  -V(xc)+E(xc)   XCENC  =      -371.42649785
  PAW double counting   =     20112.21527367   -18481.24915609
  entropy T*S    EENTRO =         0.01466193
  eigenvalues    EBANDS =     -2200.37706868
  atomic energy  EATOM  =     23695.91158506
  Solvation  Ediel_sol  =         0.00000000
  ---------------------------------------------------
  free energy    TOTEN  =      -372.22199936 eV

  energy without entropy =     -372.23666129  energy(sigma->0) =     -372.22688667


--------------------------------------------------------------------------------------------------------




----------------------------------------- Iteration    1(   6)  ---------------------------------------


    POTLOK:  cpu time    0.0307: real time    0.0311
    SETDIJ:  cpu time    0.0037: real time    0.0038
    EDDIAG:  cpu time    0.0812: real time    0.0826
  RMM-DIIS:  cpu time    0.7360: real time    0.7534
    ORTHCH:  cpu time    0.0117: real time    0.0119
       DOS:  cpu time    0.0146: real time    0.0148
    CHARGE:  cpu time    0.0403: real time    0.0406
    MIXING:  cpu time    0.0013: real time    0.0022
    --------------------------------------------
      LOOP:  cpu time    0.9200: real time    0.9588

 eigenvalue-minimisations  :  7066
 total energy-change (2. order) : 0.1001619E+02  (-0.2663993E+01)
 number of electron     286.0000008 magnetization 
 augmentation part       13.1240426 magnetization 

 Broyden mixing:
  rms(total) = 0.31233E+01    rms(broyden)= 0.31233E+01
  rms(prec ) = 0.34585E+01
  weight for this iteration     100.00

 eigenvalues of (default mixing * dielectric matrix)
  average eigenvalue GAMMA=   1.8065
  1.8065

 Free energy of the ion-electron system (eV)
  ---------------------------------------------------
  alpha Z        PSCENC =      1423.51334642
  Ewald energy   TEWEN  =    -18107.13453801
  -Hartree energ DENC   =     -6271.07022785
  -exchange      EXHF   =         0.00000000
  -V(xc)+E(xc)   XCENC  =      -374.62144321
  PAW double counting   =     25668.00123759   -24048.58910279
  entropy T*S    EENTRO =         0.01131125
  eigenvalues    EBANDS =     -2348.22798205
  atomic energy  EATOM  =     23695.91158506
  Solvation  Ediel_sol  =         0.00000000
  ---------------------------------------------------
  free energy    TOTEN  =      -362.20581358 eV

  energy without entropy =     -362.21712483  energy(sigma->0) =     -362.20958400


--------------------------------------------------------------------------------------------------------




----------------------------------------- Iteration    1(   7)  ---------------------------------------


    POTLOK:  cpu time    0.0307: real time    0.0312
    SETDIJ:  cpu time    0.0054: real time    0.0055
    EDDIAG:  cpu time    0.1643: real time    0.1667
  RMM-DIIS:  cpu time    0.7912: real time    0.8185
    ORTHCH:  cpu time    0.0114: real time    0.0116
       DOS:  cpu time    0.0042: real time    0.0043
    CHARGE:  cpu time    0.0293: real time    0.0296
    MIXING:  cpu time    0.0013: real time    0.0013
    --------------------------------------------
      LOOP:  cpu time    1.0384: real time    1.0890

 eigenvalue-minimisations  :  7264
 total energy-change (2. order) :-0.2005445E+01  (-0.3007236E+01)
 number of electron     286.0000008 magnetization 
 augmentation part       13.4899731 magnetization 

 Broyden mixing:
  rms(total) = 0.12255E+01    rms(broyden)= 0.12251E+01
  rms(prec ) = 0.33057E+01
  weight for this iteration     100.00

 eigenvalues of (default mixing * dielectric matrix)
  average eigenvalue GAMMA=   1.1713
  1.8267  0.5160

 Free energy of the ion-electron system (eV)
  ---------------------------------------------------
  alpha Z        PSCENC =      1423.51334642
  Ewald energy   TEWEN  =    -18107.13453801
  -Hartree energ DENC   =     -6214.44710393
  -exchange      EXHF   =         0.00000000
  -V(xc)+E(xc)   XCENC  =      -372.92854758
  PAW double counting   =     30725.48125041   -29101.16737964
  entropy T*S    EENTRO =         0.01463635
  eigenvalues    EBANDS =     -2413.45450720
  atomic energy  EATOM  =     23695.91158506
  Solvation  Ediel_sol  =         0.00000000
  ---------------------------------------------------
  free energy    TOTEN  =      -364.21125812 eV

  energy without entropy =     -364.22589447  energy(sigma->0) =     -364.21613690


--------------------------------------------------------------------------------------------------------




----------------------------------------- Iteration    1(   8)  ---------------------------------------


    POTLOK:  cpu time    0.0291: real time    0.0295
    SETDIJ:  cpu time    0.0260: real time    0.0263
    EDDIAG:  cpu time    0.0858: real time    0.0874
  RMM-DIIS:  cpu time    0.7656: real time    0.7806
    ORTHCH:  cpu time    0.0130: real time    0.0130
       DOS:  cpu time    0.0015: real time    0.0015
    CHARGE:  cpu time    0.0302: real time    0.0303
    MIXING:  cpu time    0.0014: real time    0.0014
    --------------------------------------------
      LOOP:  cpu time    0.9530: real time    0.9938

 eigenvalue-minimisations  :  7303
 total energy-change (2. order) : 0.6370948E+01  (-0.7496037E+00)
 number of electron     286.0000008 magnetization 
 augmentation part       13.2863743 magnetization 

 Broyden mixing:
  rms(total) = 0.42925E+00    rms(broyden)= 0.42876E+00
  rms(prec ) = 0.79939E+00
  weight for this iteration     100.00

 eigenvalues of (default mixing * dielectric matrix)
  average eigenvalue GAMMA=   1.0694
  1.8507  0.9265  0.4310

 Free energy of the ion-electron system (eV)
  ---------------------------------------------------
  alpha Z        PSCENC =      1423.51334642
  Ewald energy   TEWEN  =    -18107.13453801
  -Hartree energ DENC   =     -6193.47304785
  -exchange      EXHF   =         0.00000000
  -V(xc)+E(xc)   XCENC  =      -372.54247035
  PAW double counting   =     32068.40812708   -30442.47005380
  entropy T*S    EENTRO =         0.01453015
  eigenvalues    EBANDS =     -2430.06778908
  atomic energy  EATOM  =     23695.91158506
  Solvation  Ediel_sol  =         0.00000000
  ---------------------------------------------------
  free energy    TOTEN  =      -357.84031039 eV

  energy without entropy =     -357.85484053  energy(sigma->0) =     -357.84515377


--------------------------------------------------------------------------------------------------------




----------------------------------------- Iteration    1(   9)  ---------------------------------------


    POTLOK:  cpu time    0.0304: real time    0.0307
    SETDIJ:  cpu time    0.0036: real time    0.0036
    EDDIAG:  cpu time    0.1057: real time    0.1062
  RMM-DIIS:  cpu time    0.8121: real time    0.8760
    ORTHCH:  cpu time    0.0116: real time    0.0117
       DOS:  cpu time    0.0029: real time    0.0029
    CHARGE:  cpu time    0.0310: real time    0.0311
    MIXING:  cpu time    0.0013: real time    0.0013
    --------------------------------------------
      LOOP:  cpu time    0.9993: real time    1.1112

 eigenvalue-minimisations  :  7367
 total energy-change (2. order) : 0.3865163E+00  (-0.2943558E+00)
 number of electron     286.0000008 magnetization 
 augmentation part       13.1417058 magnetization 

 Broyden mixing:
  rms(total) = 0.28136E+00    rms(broyden)= 0.28128E+00
  rms(prec ) = 0.35805E+00
  weight for this iteration     100.00

 eigenvalues of (default mixing * dielectric matrix)
  average eigenvalue GAMMA=   1.0801
  1.7172  1.7172  0.4721  0.4139

 Free energy of the ion-electron system (eV)
  ---------------------------------------------------
  alpha Z        PSCENC =      1423.51334642
  Ewald energy   TEWEN  =    -18107.13453801
  -Hartree energ DENC   =     -6187.54562281
  -exchange      EXHF   =         0.00000000
  -V(xc)+E(xc)   XCENC  =      -372.32317016
  PAW double counting   =     32335.47438864   -30706.71604964
  entropy T*S    EENTRO =         0.02302322
  eigenvalues    EBANDS =     -2438.65675676
  atomic energy  EATOM  =     23695.91158506
  Solvation  Ediel_sol  =         0.00000000
  ---------------------------------------------------
  free energy    TOTEN  =      -357.45379404 eV

  energy without entropy =     -357.47681725  energy(sigma->0) =     -357.46146844


--------------------------------------------------------------------------------------------------------




----------------------------------------- Iteration    1(  10)  ---------------------------------------


    POTLOK:  cpu time    0.0299: real time    0.0302
    SETDIJ:  cpu time    0.0069: real time    0.0103
    EDDIAG:  cpu time    0.0897: real time    0.0905
  RMM-DIIS:  cpu time    0.7840: real time    0.7894
    ORTHCH:  cpu time    0.0125: real time    0.0125
       DOS:  cpu time    0.0026: real time    0.0026
    CHARGE:  cpu time    0.0298: real time    0.0299
    MIXING:  cpu time    0.0015: real time    0.0015
    --------------------------------------------
      LOOP:  cpu time    0.9573: real time    0.9896

 eigenvalue-minimisations  :  7406
 total energy-change (2. order) :-0.1532179E-02  (-0.6108806E-01)
 number of electron     286.0000008 magnetization 
 augmentation part       13.0394251 magnetization 

 Broyden mixing:
  rms(total) = 0.15720E+00    rms(broyden)= 0.15715E+00
  rms(prec ) = 0.26399E+00
  weight for this iteration     100.00

 eigenvalues of (default mixing * dielectric matrix)
  average eigenvalue GAMMA=   1.0967
  1.8888  1.8888  0.8017  0.4914  0.4130

 Free energy of the ion-electron system (eV)
  ---------------------------------------------------
  alpha Z        PSCENC =      1423.51334642
  Ewald energy   TEWEN  =    -18107.13453801
  -Hartree energ DENC   =     -6200.86690350
  -exchange      EXHF   =         0.00000000
  -V(xc)+E(xc)   XCENC  =      -371.36709416
  PAW double counting   =     32612.06774904   -30976.76808450
  entropy T*S    EENTRO =         0.02510970
  eigenvalues    EBANDS =     -2432.83649627
  atomic energy  EATOM  =     23695.91158506
  Solvation  Ediel_sol  =         0.00000000
  ---------------------------------------------------
  free energy    TOTEN  =      -357.45532622 eV

  energy without entropy =     -357.48043591  energy(sigma->0) =     -357.46369612


--------------------------------------------------------------------------------------------------------




----------------------------------------- Iteration    1(  11)  ---------------------------------------


    POTLOK:  cpu time    0.0294: real time    0.0295
    SETDIJ:  cpu time    0.0037: real time    0.0037
    EDDIAG:  cpu time    0.0766: real time    0.0771
  RMM-DIIS:  cpu time    0.7359: real time    0.7455
    ORTHCH:  cpu time    0.0116: real time    0.0117
       DOS:  cpu time    0.0017: real time    0.0017
    CHARGE:  cpu time    0.0299: real time    0.0299
    MIXING:  cpu time    0.0014: real time    0.0014
    --------------------------------------------
      LOOP:  cpu time    0.8908: real time    0.9210

 eigenvalue-minimisations  :  7331
 total energy-change (2. order) : 0.2742174E-01  (-0.1666070E-01)
 number of electron     286.0000008 magnetization 
 augmentation part       13.0027961 magnetization 

 Broyden mixing:
  rms(total) = 0.87080E-01    rms(broyden)= 0.87031E-01
  rms(prec ) = 0.16336E+00
  weight for this iteration     100.00

 eigenvalues of (default mixing * dielectric matrix)
  average eigenvalue GAMMA=   1.0719
  2.1171  1.9080  1.0598  0.3958  0.4753  0.4753

 Free energy of the ion-electron system (eV)
  ---------------------------------------------------
  alpha Z        PSCENC =      1423.51334642
  Ewald energy   TEWEN  =    -18107.13453801
  -Hartree energ DENC   =     -6203.38405941
  -exchange      EXHF   =         0.00000000
  -V(xc)+E(xc)   XCENC  =      -370.95875997
  PAW double counting   =     32780.76823103   -31142.02041367
  entropy T*S    EENTRO =         0.02367610
  eigenvalues    EBANDS =     -2434.14697203
  atomic energy  EATOM  =     23695.91158506
  Solvation  Ediel_sol  =         0.00000000
  ---------------------------------------------------
  free energy    TOTEN  =      -357.42790448 eV

  energy without entropy =     -357.45158058  energy(sigma->0) =     -357.43579651


--------------------------------------------------------------------------------------------------------




----------------------------------------- Iteration    1(  12)  ---------------------------------------


    POTLOK:  cpu time    0.0293: real time    0.0297
    SETDIJ:  cpu time    0.0036: real time    0.0037
    EDDIAG:  cpu time    0.0828: real time    0.0833
  RMM-DIIS:  cpu time    0.8386: real time    0.8518
    ORTHCH:  cpu time    0.0117: real time    0.0118
       DOS:  cpu time    0.0040: real time    0.0040
    CHARGE:  cpu time    0.0471: real time    0.0474
    MIXING:  cpu time    0.0015: real time    0.0015
    --------------------------------------------
      LOOP:  cpu time    1.0191: real time    1.0495

 eigenvalue-minimisations  :  7456
 total energy-change (2. order) : 0.4796837E-02  (-0.8308391E-02)
 number of electron     286.0000008 magnetization 
 augmentation part       12.9957337 magnetization 

 Broyden mixing:
  rms(total) = 0.43676E-01    rms(broyden)= 0.43649E-01
  rms(prec ) = 0.69748E-01
  weight for this iteration     100.00

 eigenvalues of (default mixing * dielectric matrix)
  average eigenvalue GAMMA=   1.0386
  2.1515  1.8788  1.3005  0.5784  0.5784  0.4098  0.3727

 Free energy of the ion-electron system (eV)
  ---------------------------------------------------
  alpha Z        PSCENC =      1423.51334642
  Ewald energy   TEWEN  =    -18107.13453801
  -Hartree energ DENC   =     -6208.07077544
  -exchange      EXHF   =         0.00000000
  -V(xc)+E(xc)   XCENC  =      -370.66146800
  PAW double counting   =     32923.38423168   -31282.05847526
  entropy T*S    EENTRO =         0.02392893
  eigenvalues    EBANDS =     -2432.33094302
  atomic energy  EATOM  =     23695.91158506
  Solvation  Ediel_sol  =         0.00000000
  ---------------------------------------------------
  free energy    TOTEN  =      -357.42310764 eV

  energy without entropy =     -357.44703657  energy(sigma->0) =     -357.43108395


--------------------------------------------------------------------------------------------------------




----------------------------------------- Iteration    1(  13)  ---------------------------------------


    POTLOK:  cpu time    0.0285: real time    0.0303
    SETDIJ:  cpu time    0.0338: real time    0.0342
    EDDIAG:  cpu time    0.0832: real time    0.0888
  RMM-DIIS:  cpu time    0.7395: real time    0.7603
    ORTHCH:  cpu time    0.0115: real time    0.0118
       DOS:  cpu time    0.0010: real time    0.0010
    CHARGE:  cpu time    0.0308: real time    0.0312
    MIXING:  cpu time    0.0015: real time    0.0015
    --------------------------------------------
      LOOP:  cpu time    0.9306: real time    1.0016

 eigenvalue-minimisations  :  7407
 total energy-change (2. order) : 0.1280192E-02  (-0.2864124E-02)
 number of electron     286.0000008 magnetization 
 augmentation part       12.9920451 magnetization 

 Broyden mixing:
  rms(total) = 0.25220E-01    rms(broyden)= 0.25205E-01
  rms(prec ) = 0.35991E-01
  weight for this iteration     100.00

 eigenvalues of (default mixing * dielectric matrix)
  average eigenvalue GAMMA=   1.0500
  2.1567  2.0089  1.4348  0.9729  0.5553  0.5119  0.4075  0.3517

 Free energy of the ion-electron system (eV)
  ---------------------------------------------------
  alpha Z        PSCENC =      1423.51334642
  Ewald energy   TEWEN  =    -18107.13453801
  -Hartree energ DENC   =     -6208.67446603
  -exchange      EXHF   =         0.00000000
  -V(xc)+E(xc)   XCENC  =      -370.60912100
  PAW double counting   =     32989.65526902   -31347.42316578
  entropy T*S    EENTRO =         0.02446188
  eigenvalues    EBANDS =     -2432.68519901
  atomic energy  EATOM  =     23695.91158506
  Solvation  Ediel_sol  =         0.00000000
  ---------------------------------------------------
  free energy    TOTEN  =      -357.42182745 eV

  energy without entropy =     -357.44628933  energy(sigma->0) =     -357.42998141


--------------------------------------------------------------------------------------------------------




----------------------------------------- Iteration    1(  14)  ---------------------------------------


    POTLOK:  cpu time    0.0291: real time    0.0296
    SETDIJ:  cpu time    0.0037: real time    0.0037
    EDDIAG:  cpu time    0.0769: real time    0.0784
  RMM-DIIS:  cpu time    0.7511: real time    0.7719
    ORTHCH:  cpu time    0.0116: real time    0.0118
       DOS:  cpu time    0.0012: real time    0.0012
    CHARGE:  cpu time    0.0292: real time    0.0296
    MIXING:  cpu time    0.0015: real time    0.0015
    --------------------------------------------
      LOOP:  cpu time    0.9047: real time    0.9506

 eigenvalue-minimisations  :  7587
 total energy-change (2. order) :-0.3803715E-03  (-0.1298449E-02)
 number of electron     286.0000008 magnetization 
 augmentation part       12.9914696 magnetization 

 Broyden mixing:
  rms(total) = 0.14008E-01    rms(broyden)= 0.14004E-01
  rms(prec ) = 0.20110E-01
  weight for this iteration     100.00

 eigenvalues of (default mixing * dielectric matrix)
  average eigenvalue GAMMA=   1.0749
  2.3195  2.1466  1.6062  1.1281  0.6198  0.6198  0.4592  0.4184  0.3564

 Free energy of the ion-electron system (eV)
  ---------------------------------------------------
  alpha Z        PSCENC =      1423.51334642
  Ewald energy   TEWEN  =    -18107.13453801
  -Hartree energ DENC   =     -6208.84599134
  -exchange      EXHF   =         0.00000000
  -V(xc)+E(xc)   XCENC  =      -370.60665935
  PAW double counting   =     33023.90983806   -31381.21616472
  entropy T*S    EENTRO =         0.02458208
  eigenvalues    EBANDS =     -2432.97820602
  atomic energy  EATOM  =     23695.91158506
  Solvation  Ediel_sol  =         0.00000000
  ---------------------------------------------------
  free energy    TOTEN  =      -357.42220782 eV

  energy without entropy =     -357.44678990  energy(sigma->0) =     -357.43040185


--------------------------------------------------------------------------------------------------------




----------------------------------------- Iteration    1(  15)  ---------------------------------------


    POTLOK:  cpu time    0.0291: real time    0.0297
    SETDIJ:  cpu time    0.0036: real time    0.0036
    EDDIAG:  cpu time    0.0768: real time    0.0778
  RMM-DIIS:  cpu time    0.8067: real time    0.8139
    ORTHCH:  cpu time    0.0117: real time    0.0117
       DOS:  cpu time    0.0009: real time    0.0009
    CHARGE:  cpu time    0.0294: real time    0.0295
    MIXING:  cpu time    0.0016: real time    0.0016
    --------------------------------------------
      LOOP:  cpu time    0.9604: real time    0.9944

 eigenvalue-minimisations  :  7525
 total energy-change (2. order) :-0.4611873E-03  (-0.6647158E-03)
 number of electron     286.0000008 magnetization 
 augmentation part       12.9885754 magnetization 

 Broyden mixing:
  rms(total) = 0.73643E-02    rms(broyden)= 0.73618E-02
  rms(prec ) = 0.14046E-01
  weight for this iteration     100.00

 eigenvalues of (default mixing * dielectric matrix)
  average eigenvalue GAMMA=   1.0655
  2.5767  2.0838  1.5683  1.3285  0.7013  0.7013  0.3562  0.3991  0.4697  0.4697

 Free energy of the ion-electron system (eV)
  ---------------------------------------------------
  alpha Z        PSCENC =      1423.51334642
  Ewald energy   TEWEN  =    -18107.13453801
  -Hartree energ DENC   =     -6208.99856850
  -exchange      EXHF   =         0.00000000
  -V(xc)+E(xc)   XCENC  =      -370.60390446
  PAW double counting   =     33050.08502952   -31407.01154272
  entropy T*S    EENTRO =         0.02453583
  eigenvalues    EBANDS =     -2433.20861215
  atomic energy  EATOM  =     23695.91158506
  Solvation  Ediel_sol  =         0.00000000
  ---------------------------------------------------
  free energy    TOTEN  =      -357.42266901 eV

  energy without entropy =     -357.44720483  energy(sigma->0) =     -357.43084762


--------------------------------------------------------------------------------------------------------




----------------------------------------- Iteration    1(  16)  ---------------------------------------


    POTLOK:  cpu time    0.0281: real time    0.0287
    SETDIJ:  cpu time    0.0075: real time    0.0076
    EDDIAG:  cpu time    0.0984: real time    0.1002
  RMM-DIIS:  cpu time    0.6642: real time    0.6810
    ORTHCH:  cpu time    0.0119: real time    0.0121
       DOS:  cpu time    0.0009: real time    0.0009
    CHARGE:  cpu time    0.0298: real time    0.0302
    MIXING:  cpu time    0.0017: real time    0.0017
    --------------------------------------------
      LOOP:  cpu time    0.8429: real time    0.9171

 eigenvalue-minimisations  :  6571
 total energy-change (2. order) :-0.1826146E-03  (-0.2936552E-03)
 number of electron     286.0000008 magnetization 
 augmentation part       12.9877443 magnetization 

 Broyden mixing:
  rms(total) = 0.41207E-02    rms(broyden)= 0.41194E-02
  rms(prec ) = 0.85944E-02
  weight for this iteration     100.00

 eigenvalues of (default mixing * dielectric matrix)
  average eigenvalue GAMMA=   1.0335
  2.6335  2.0770  1.6728  1.2860  0.7582  0.7582  0.5108  0.5108  0.3560  0.4026
  0.4026

 Free energy of the ion-electron system (eV)
  ---------------------------------------------------
  alpha Z        PSCENC =      1423.51334642
  Ewald energy   TEWEN  =    -18107.13453801
  -Hartree energ DENC   =     -6209.23533960
[...]
     94       5.0805      2.00000
     95       5.1009      2.00000
     96       5.1631      2.00000
     97       5.2058      2.00000
     98       5.2595      2.00000
     99       5.3024      2.00000
    100       5.4121      2.00000
    101       5.4439      2.00000
    102       5.5042      2.00000
    103       5.5343      2.00000
    104       5.6002      2.00000
    105       5.7444      2.00000
    106       5.8085      2.00000
    107       5.8449      2.00000
    108       5.8866      2.00000
    109       5.9604      2.00000
    110       5.9860      2.00000
    111       6.0411      2.00000
    112       6.0536      2.00000
    113       6.0773      2.00000
    114       6.0967      2.00000
    115       6.1356      2.00000
    116       6.1788      2.00000
    117       6.2102      2.00000
    118       6.2549      2.00000
    119       6.3123      2.00000
    120       6.3747      2.00000
    121       6.4140      2.00000
    122       6.4413      2.00000
    123       6.5095      2.00000
    124       6.5299      2.00000
    125       6.5667      2.00000
    126       6.5932      2.00000
    127       6.6288      2.00000
    128       6.6569      2.00000
    129       6.7287      2.00001
    130       6.7543      2.00002
    131       6.7677      2.00004
    132       6.8305      2.00040
    133       6.8683      2.00142
    134       6.8869      2.00250
    135       6.9020      2.00386
    136       6.9419      2.01081
    137       6.9712      2.02048
    138       6.9900      2.02920
    139       7.0219      2.04771
    140       7.0645      2.06940
    141       7.1145      2.04221
    142       7.1655      1.86223
    143       7.1842      1.74094
    144       7.2224      1.40297
    145       7.2717      0.86040
    146       7.2909      0.65241
    147       7.3614      0.09409
    148       7.3842      0.00402
    149       7.4247     -0.06554
    150       7.4567     -0.06865
    151       7.5171     -0.03549
    152       7.5408     -0.02331
    153       7.5639     -0.01447
    154       7.6364     -0.00217
    155       7.6576     -0.00112
    156       7.7089     -0.00019
    157       7.7276     -0.00009
    158       7.7653     -0.00002
    159       7.7803     -0.00001
    160       7.8177     -0.00000
    161       7.8838     -0.00000
    162       7.9520     -0.00000
    163       7.9966     -0.00000
    164       8.0566     -0.00000
    165       8.1111     -0.00000
    166       8.1390     -0.00000
    167       8.1991     -0.00000
    168       8.2987     -0.00000
    169       8.3986     -0.00000
    170       8.5126     -0.00000
    171       8.6674     -0.00000
    172       8.9628     -0.00000


--------------------------------------------------------------------------------------------------------


 soft charge-density along one line, spin component           1
         0         1         2         3         4         5         6         7         8         9
 total charge-density along one line
 
 pseudopotential strength for first ion, spin component:           1
 -6.396   0.000  -0.000   0.000  -0.001  -7.597   0.000  -0.000
  0.000  -6.401  -0.001  -0.001   0.001   0.000  -7.604  -0.001
 -0.000  -0.001  -6.408   0.000   0.001  -0.000  -0.001  -7.612
  0.000  -0.001   0.000  -6.400  -0.000   0.001  -0.001   0.000
 -0.001   0.001   0.001  -0.000  -6.406  -0.001   0.001   0.001
 -7.597   0.000  -0.000   0.001  -0.001  -9.002   0.001  -0.000
  0.000  -7.604  -0.001  -0.001   0.001   0.001  -9.011  -0.001
 -0.000  -0.001  -7.612   0.000   0.001  -0.000  -0.001  -9.021
  0.001  -0.001   0.000  -7.602  -0.000   0.001  -0.001   0.000
 -0.001   0.001   0.001  -0.000  -7.609  -0.001   0.002   0.001
  0.000  -0.001   0.001  -0.001  -0.001   0.000  -0.001   0.002
  0.000  -0.002   0.002  -0.001  -0.001   0.000  -0.002   0.003
  0.001  -0.000  -0.000  -0.005  -0.000   0.002   0.000  -0.000
 -0.005   0.000   0.004   0.002  -0.000  -0.006   0.000   0.004
 -0.000  -0.005  -0.001  -0.000   0.003  -0.000  -0.006  -0.001
 -0.001   0.002  -0.000   0.007   0.000  -0.001   0.002  -0.000
  0.007   0.000  -0.003  -0.002   0.000   0.008   0.000  -0.004
  0.001   0.007   0.001   0.002  -0.003   0.001   0.008   0.001
 total augmentation occupancy for first ion, spin component:           1
  5.395  -0.046  -0.010   0.105  -0.059  -2.786   0.031  -0.007  -0.038   0.022  -0.027   0.009   0.015   0.087  -0.031  -0.001
 -0.046   5.049   0.011  -0.059  -0.010   0.031  -2.623  -0.006   0.033   0.009   0.020   0.004  -0.067   0.011   0.081  -0.001
 -0.010   0.011   4.899  -0.041   0.078  -0.007  -0.006  -2.706   0.033  -0.048  -0.039   0.020   0.009  -0.048  -0.004   0.000
  0.105  -0.059  -0.041   5.245  -0.107  -0.039   0.034   0.033  -2.711   0.068  -0.064   0.003   0.075  -0.068  -0.012   0.005
 -0.059  -0.010   0.078  -0.107   4.912   0.021   0.009  -0.048   0.068  -2.731  -0.026   0.002   0.002   0.014  -0.027   0.000
 -2.786   0.031  -0.007  -0.039   0.021   1.467  -0.019   0.010   0.017  -0.007   0.017  -0.005  -0.002  -0.043   0.016   0.001
  0.031  -2.623  -0.006   0.034   0.009  -0.019   1.388   0.003  -0.018  -0.007   0.001  -0.002   0.033  -0.005  -0.040   0.001
 -0.007  -0.006  -2.706   0.033  -0.048   0.010   0.003   1.505  -0.023   0.030   0.025  -0.011  -0.005   0.025   0.000  -0.000
 -0.038   0.033   0.033  -2.711   0.068   0.017  -0.018  -0.023   1.427  -0.042   0.044  -0.003  -0.038   0.034   0.008  -0.002
  0.022   0.009  -0.048   0.068  -2.731  -0.007  -0.007   0.030  -0.042   1.528   0.019  -0.002   0.000  -0.007   0.014  -0.000
 -0.027   0.020  -0.039  -0.064  -0.026   0.017   0.001   0.025   0.044   0.019   2.219  -0.230  -0.001  -0.022  -0.006  -0.000
  0.009   0.004   0.020   0.003   0.002  -0.005  -0.002  -0.011  -0.003  -0.002  -0.230   0.026  -0.001  -0.001   0.000   0.000
  0.015  -0.067   0.009   0.075   0.002  -0.002   0.033  -0.005  -0.038   0.000  -0.001  -0.001   0.299  -0.018  -0.005   0.007
  0.087   0.011  -0.048  -0.068   0.014  -0.043  -0.005   0.025   0.034  -0.007  -0.022  -0.001  -0.018   0.283  -0.004  -0.001
 -0.031   0.081  -0.004  -0.012  -0.027   0.016  -0.040   0.000   0.008   0.014  -0.006   0.000  -0.005  -0.004   0.282  -0.000
 -0.001  -0.001   0.000   0.005   0.000   0.001   0.001  -0.000  -0.002  -0.000  -0.000   0.000   0.007  -0.001  -0.000   0.000
  0.005  -0.001  -0.003  -0.002  -0.000  -0.002   0.001   0.002   0.001   0.000  -0.000  -0.000  -0.000   0.007   0.000  -0.000
 -0.001   0.005   0.001  -0.001  -0.002   0.001  -0.002  -0.001   0.001   0.001  -0.001   0.000  -0.000   0.000   0.007  -0.000


------------------------ aborting loop because EDIFF is reached ----------------------------------------


    CHARGE:  cpu time    0.0277: real time    0.0281
    FORLOC:  cpu time    0.0133: real time    0.0134
    FORNL :  cpu time    0.3175: real time    0.3269
    STRESS:  cpu time    0.8387: real time    0.8621
    FORCOR:  cpu time    0.0425: real time    0.0432
    FORHAR:  cpu time    0.0180: real time    0.0183
    MIXING:  cpu time    0.0012: real time    0.0012
    OFIELD:  cpu time    0.0000: real time    0.0000

  FORCE on cell =-STRESS in cart. coord.  units (eV):
  Direction    XX          YY          ZZ          XY          YZ          ZX
  --------------------------------------------------------------------------------------
  Alpha Z  1425.33411  1425.33411  1425.33411
  Ewald   -5388.24759 -6849.28067 -5887.98853   251.97924  -379.46000    64.38666
  Hartree  2681.08812  1314.37936  2201.14237   225.97400  -372.43447    35.00065
  E(xc)   -1231.27560 -1231.33389 -1231.42919    -0.26666     0.42675    -0.42572
  Local   -2081.44246   741.24004 -1103.32434  -477.36366   751.11929   -98.86124
  n-local  -300.35425  -302.81030  -305.16467     0.85627    -4.00430    -3.03458
  augment   143.38753   144.01120   143.94429    -0.29999     0.70362     0.23271
  Kinetic  4751.76066  4758.70371  4757.67045    -0.91986     3.65759     2.64395
  Fock        0.00000     0.00000     0.00000     0.00000     0.00000     0.00000
  -------------------------------------------------------------------------------------
  Total       0.25052     0.24354     0.18448    -0.04066     0.00848    -0.05757
  in kB       0.53748     0.52250     0.39579    -0.08724     0.01819    -0.12352
  external pressure =        0.49 kB  Pullay stress =        0.00 kB


 VOLUME and BASIS-vectors are now :
 -----------------------------------------------------------------------------
  energy-cutoff  :      300.00
  volume of cell :      746.79
      direct lattice vectors                 reciprocal lattice vectors
     7.043479179  0.001048816 -0.042878275     0.141980648 -0.000022616  0.000879530
     0.001660286 10.278906069 -0.003703775    -0.000014273  0.097286632  0.000035135
    -0.063900908 -0.003734741 10.315286695     0.000590176  0.000034837  0.096947169

  length of vectors
     7.043609770 10.278906870 10.315485295     0.141983374  0.097286640  0.096948972


 FORCES acting on ions
    electron-ion (+dipol)            ewald-force                    non-local-force                 convergence-correction
 -----------------------------------------------------------------------------------------------
   0.191E+02 -.177E+03 -.105E+03   -.193E+02 0.177E+03 0.105E+03   0.250E+00 0.580E-01 0.341E+00   -.174E-02 -.553E-02 -.184E-02
   0.471E+01 -.909E+02 0.187E+02   -.451E+01 0.915E+02 -.184E+02   -.202E+00 -.602E+00 -.255E+00   0.234E-02 -.751E-02 0.395E-02
   0.402E+02 -.165E+02 0.724E+02   -.408E+02 0.161E+02 -.731E+02   0.543E+00 0.480E+00 0.700E+00   -.196E-02 -.860E-03 0.603E-02
   0.501E+02 -.337E+02 -.497E+02   -.491E+02 0.336E+02 0.491E+02   -.946E+00 0.117E+00 0.645E+00   -.232E-02 0.598E-02 0.308E-02
   -.275E+01 -.516E+02 0.854E+01   0.240E+01 0.524E+02 -.809E+01   0.356E+00 -.795E+00 -.462E+00   -.223E-02 -.776E-02 0.531E-02
   -.620E+02 -.950E+02 -.125E+01   0.627E+02 0.946E+02 0.189E+01   -.717E+00 0.401E+00 -.633E+00   0.505E-02 0.152E-02 -.488E-02
   -.478E+02 -.213E+02 -.377E+02   0.468E+02 0.213E+02 0.370E+02   0.103E+01 0.427E-01 0.692E+00   0.284E-02 0.417E-02 0.202E-02
   0.200E+02 0.354E+02 -.162E+02   -.196E+02 -.357E+02 0.156E+02   -.372E+00 0.337E+00 0.599E+00   0.410E-02 0.274E-02 0.214E-02
   -.102E+02 -.105E+03 -.117E+03   0.107E+02 0.105E+03 0.117E+03   -.500E+00 -.154E+00 0.119E+00   0.249E-02 -.681E-02 0.224E-03
   -.694E+02 0.818E+02 0.204E+01   0.689E+02 -.821E+02 -.182E+01   0.541E+00 0.286E+00 -.208E+00   0.351E-02 0.532E-02 -.807E-02
   0.495E+02 -.331E+02 -.346E+02   -.500E+02 0.324E+02 0.347E+02   0.472E+00 0.675E+00 -.736E-01   -.300E-02 -.141E-02 0.552E-03
   0.124E+02 0.908E+02 0.711E+01   -.132E+02 -.912E+02 -.689E+01   0.771E+00 0.388E+00 -.218E+00   -.266E-02 0.224E-02 -.386E-02
   -.199E+02 0.831E+02 0.161E+02   0.201E+02 -.835E+02 -.161E+02   -.199E+00 0.385E+00 0.246E-02   0.402E-02 0.253E-02 0.441E-02
   0.489E+02 -.825E+02 -.233E+02   -.498E+02 0.824E+02 0.239E+02   0.868E+00 0.306E-01 -.540E+00   -.336E-02 0.284E-02 -.542E-02
   -.727E+01 0.522E+02 0.403E+02   0.675E+01 -.521E+02 -.400E+02   0.518E+00 -.843E-01 -.286E+00   -.165E-03 -.299E-03 0.164E-03
   -.100E+02 -.252E+02 0.526E+02   0.101E+02 0.255E+02 -.534E+02   -.752E-01 -.286E+00 0.793E+00   -.634E-05 -.320E-02 0.195E-02
   -.512E+02 -.140E+02 -.550E+02   0.516E+02 0.132E+02 0.549E+02   -.414E+00 0.808E+00 0.505E-01   0.291E-02 -.354E-02 -.146E-02
   -.304E+02 -.202E+02 0.512E+02   0.309E+02 0.198E+02 -.516E+02   -.446E+00 0.354E+00 0.474E+00   0.221E-02 -.116E-02 0.513E-02
   -.116E+02 0.819E+02 0.305E+02   0.124E+02 -.820E+02 -.302E+02   -.824E+00 0.487E-01 -.297E+00   0.259E-02 0.349E-02 -.284E-02
   0.134E+02 0.840E+02 -.264E+02   -.141E+02 -.836E+02 0.264E+02   0.711E+00 -.439E+00 0.160E-01   -.234E-02 0.617E-02 -.135E-02
   0.329E+01 -.379E+02 0.833E+02   -.382E+01 0.385E+02 -.824E+02   0.538E+00 -.610E+00 -.893E+00   -.764E-02 -.194E-01 -.672E-02
   -.640E+02 -.373E+03 -.257E+03   0.643E+02 0.374E+03 0.256E+03   -.323E+00 -.418E-01 0.766E+00   0.323E-02 -.133E-01 -.381E-02
   -.843E+02 0.247E+03 -.129E+03   0.852E+02 -.246E+03 0.129E+03   -.988E+00 -.678E+00 -.133E+00   0.157E-01 0.225E-01 -.969E-02
   -.434E+02 0.222E+03 -.804E+02   0.429E+02 -.221E+03 0.810E+02   0.462E+00 -.424E+00 -.609E+00   0.185E-02 0.126E-04 -.129E-02
   0.362E+02 0.657E+02 0.672E+02   -.365E+02 -.650E+02 -.677E+02   0.319E+00 -.674E+00 0.553E+00   -.692E-02 0.127E-01 0.145E-01
   0.494E+02 -.874E+02 0.198E+03   -.497E+02 0.878E+02 -.198E+03   0.280E+00 -.427E+00 0.811E+00   -.454E-03 -.126E-01 0.525E-02
   0.126E+01 0.557E+02 -.385E+02   -.215E+01 -.557E+02 0.386E+02   0.896E+00 0.286E-01 -.132E+00   -.126E-01 0.749E-02 0.235E-02
   0.873E+02 0.127E+03 0.423E+01   -.858E+02 -.127E+03 -.468E+01   -.141E+01 0.962E-01 0.469E+00   -.298E-02 0.140E-01 -.201E-01
   0.246E+02 -.155E+03 -.343E+03   -.251E+02 0.155E+03 0.343E+03   0.475E+00 -.155E+00 -.240E-01   -.586E-02 -.155E-01 0.692E-02
   -.417E+02 0.122E+03 -.213E+02   0.420E+02 -.122E+03 0.214E+02   -.281E+00 0.193E+00 -.108E+00   0.753E-02 0.158E-01 0.192E-01
   -.279E+02 0.197E+03 0.144E+03   0.286E+02 -.196E+03 -.144E+03   -.738E+00 -.402E+00 -.373E+00   0.118E-02 -.830E-02 -.688E-03
   0.246E+02 -.319E+02 0.665E+02   -.242E+02 0.322E+02 -.657E+02   -.407E+00 -.274E+00 -.807E+00   0.277E-02 -.154E-01 -.489E-02
   0.451E+01 -.313E+03 0.201E+03   -.417E+01 0.313E+03 -.201E+03   -.350E+00 -.217E+00 -.191E+00   0.391E-02 -.108E-03 -.543E-02
   0.444E+02 0.204E+03 -.169E+02   -.440E+02 -.204E+03 0.174E+02   -.400E+00 -.333E-01 -.494E+00   0.232E-02 0.332E-02 -.951E-02
   0.454E+02 0.213E+03 0.514E+02   -.455E+02 -.214E+03 -.512E+02   0.122E+00 0.776E+00 -.249E+00   -.155E-01 0.330E-02 0.155E-01
   0.468E+01 -.199E+03 0.238E+03   -.502E+01 0.199E+03 -.238E+03   0.347E+00 -.115E+00 -.220E+00   -.422E-02 -.761E-02 -.876E-02
 -----------------------------------------------------------------------------------------------
   0.103E+00 0.919E+00 0.182E+00   -.799E-13 -.142E-12 0.284E-13   -.985E-01 -.907E+00 -.175E+00   -.540E-02 -.143E-01 -.195E-02
 
 
 POSITION                                       TOTAL-FORCE (eV/Angst)
 -----------------------------------------------------------------------------------
      5.18271      8.53286      8.52630        -0.001491     -0.000999      0.004664
      5.31320      8.59606      1.71390        -0.001289     -0.006335     -0.003310
      6.96463     10.16436      3.29159        -0.002051      0.000587     -0.004889
      1.99638      5.09031      1.46608        -0.003217     -0.000761      0.005156
      1.69312      8.72591      1.78083         0.002990     -0.004059     -0.003636
      3.58483     10.25124      6.86239         0.000533     -0.000167      0.001584
      5.08319      5.16571      1.53681        -0.003088     -0.004539      0.007843
      5.45443      1.58565      4.98243         0.002536     -0.000368     -0.000936
      3.49134      6.92293     10.26846         0.000903      0.002151      0.000291
      4.94618      1.66328      8.71070         0.000814     -0.001549      0.003249
      6.92366     10.24393     10.21952         0.002873      0.000950      0.004080
      6.75563      3.28720      6.99233         0.002591      0.002608     -0.000112
      5.22607      1.66383      1.68175         0.000540      0.009362     -0.001976
      6.84069      0.08380      7.03112         0.003567     -0.001696     -0.002424
      1.57642      5.15791      5.31327        -0.001907     -0.001200      0.000168
      0.10221      6.80536      3.16223         0.000266      0.000287      0.000794
      3.42077     10.02293     10.26624         0.000783      0.003194      0.003617
      3.56219     10.23018      3.50614         0.002613      0.002319     -0.001813
      3.69498      3.38951      6.71291        -0.001357      0.001921     -0.005828
      6.85498      3.43098     10.25275         0.003187      0.000784      0.003377
      6.96720      6.93587      7.11711         0.003733      0.002698      0.000452
      1.70965      8.55413      8.46039        -0.005587      0.005447      0.004249
      3.54520      3.52882     10.27801        -0.001349     -0.000355     -0.004543
      5.15955      5.20170      8.65517        -0.006916     -0.002051     -0.002337
     -0.00830      3.59745      3.26590         0.001398      0.002952      0.002499
      3.45349      6.87708      3.33663         0.002273     -0.005386      0.003839
      1.57312      1.70594      5.16533        -0.000554     -0.001209     -0.000344
      1.88731      1.75815      8.53337        -0.003100     -0.000490      0.000340
      0.00288      6.87388      0.01678        -0.001047     -0.001156      0.001605
      3.56423      3.45177      3.49892        -0.003203      0.002040      0.002453
      5.51779      5.33012      5.17090         0.001773     -0.000391      0.000308
      3.53709      6.86803      6.91438         0.002172      0.000642     -0.006335
      5.39660      8.52171      5.15728        -0.003606     -0.004131     -0.001745
      1.74463      5.08626      8.60016         0.004914     -0.002162     -0.004790
      1.75275      1.65673      1.71798        -0.003559     -0.000361     -0.002159
      1.63219      8.56234      5.22958         0.002864      0.001423     -0.003389
 -----------------------------------------------------------------------------------
    total drift:                               -0.000486     -0.002084      0.004787


--------------------------------------------------------------------------------------------------------



  FREE ENERGIE OF THE ION-ELECTRON SYSTEM (eV)
  ---------------------------------------------------
  free  energy   TOTEN  =      -357.42939470 eV

  energy  without entropy=     -357.45290064  energy(sigma->0) =     -357.43723001
 
 d Force = 0.6339493E-04[ 0.549E-04, 0.719E-04]  d Energy = 0.1154609E-03-0.521E-04
 d Force =-0.3238940E+00[-0.324E+00,-0.323E+00]  d Ewald  =-0.9743754E+00 0.650E+00


--------------------------------------------------------------------------------------------------------


    POTLOK:  cpu time    0.0356: real time    0.0364


--------------------------------------------------------------------------------------------------------


 Conjugate gradient step on ions:
 trial-energy change:   -0.000115  1 .order   -0.000101   -0.000110   -0.000092
  (g-gl).g = 0.962E-04      g.g   = 0.883E-04  gl.gl    = 0.573E-04
 g(Force)  = 0.189E-04   g(Stress)= 0.694E-04 ortho     =-0.825E-05
 gamma     =   1.67765
 trial     =   1.47823
 opt step  =   5.91290  (harmonic =   9.04639) maximal distance =0.00480312
 next E    =  -357.429616   (d E  =  -0.00034)


--------------------------------------------------------------------------------------------------------


  
 reached required accuracy - stopping structural energy minimisation
     LOOP+:  cpu time    4.5423: real time    5.1091
    4ORBIT:  cpu time    0.0000: real time    0.0000

 total amount of memory used by VASP on root node    66751. kBytes
========================================================================

   base      :      30000. kBytes
   nonlr-proj:       9922. kBytes
   fftplans  :       2814. kBytes
   grid      :       5360. kBytes
   one-center:        124. kBytes
   wavefun   :      18531. kBytes
 
  
  
 General timing and accounting informations for this job:
 ========================================================
  
                  Total CPU time used (sec):      111.039
                            User time (sec):      110.095
                          System time (sec):        0.944
                         Elapsed time (sec):      127.233
  
                   Maximum memory used (kb):      252828.
                   Average memory used (kb):           0.
  
                          Minor page faults:       102896
                          Major page faults:           35
                 Voluntary context switches:         5607
