 vasp.5.4.1 05Feb16 (build Jan 29 2020 16:04:39) complex                        
  
 executed on           IFC91_ompi date 2020.06.15  13:10:15
 running on  160 total cores
 distrk:  each k-point on   20 cores,    8 groups
 distr:  one band on NCORES_PER_BAND=   5 cores,    4 groups


--------------------------------------------------------------------------------------------------------


 INCAR:
 POTCAR:    PAW_PBE Zr_sv 04Jan2005               
 POTCAR:    PAW_PBE Hf 20Jan2003                  
 POTCAR:    PAW_PBE Ta 17Jan2003                  
 POTCAR:    PAW_PBE Nb_sv 25May2007               

 ----------------------------------------------------------------------------- 
|                                                                             |
|           W    W    AA    RRRRR   N    N  II  N    N   GGGG   !!!           |
|           W    W   A  A   R    R  NN   N  II  NN   N  G    G  !!!           |
|           W    W  A    A  R    R  N N  N  II  N N  N  G       !!!           |
|           W WW W  AAAAAA  RRRRR   N  N N  II  N  N N  G  GGG   !            |
|           WW  WW  A    A  R   R   N   NN  II  N   NN  G    G                |
|           W    W  A    A  R    R  N    N  II  N    N   GGGG   !!!           |
|                                                                             |
|      For optimal performance we recommend to set                            |
|        NCORE= 4 - approx SQRT( number of cores)                             |
|      NCORE specifies how many cores store one orbital (NPAR=cpu/NCORE).     |
|      This setting can  greatly improve the performance of VASP for DFT.     |
|      The default, NPAR=number of cores might be grossly inefficient         |
|      on modern multi-core architectures or massively parallel machines.     |
|      Do your own testing !!!!                                               |
|      Unfortunately you need to use the default for GW and RPA calculations. |
|      (for HF NCORE is supported but not extensively tested yet)             |
|                                                                             |
 ----------------------------------------------------------------------------- 


 ----------------------------------------------------------------------------- 
|                                                                             |
|           W    W    AA    RRRRR   N    N  II  N    N   GGGG   !!!           |
|           W    W   A  A   R    R  NN   N  II  NN   N  G    G  !!!           |
|           W    W  A    A  R    R  N N  N  II  N N  N  G       !!!           |
|           W WW W  AAAAAA  RRRRR   N  N N  II  N  N N  G  GGG   !            |
|           WW  WW  A    A  R   R   N   NN  II  N   NN  G    G                |
|           W    W  A    A  R    R  N    N  II  N    N   GGGG   !!!           |
|                                                                             |
|      You have enabled k-point parallelism (KPAR>1).                         |
|      This developmental code was originally  written by Paul Kent at ORNL,  |
|      and carefully double checked in Vienna.                                |
|      GW as well as linear response parallelism added by Martijn Marsman     |
|      and Georg Kresse.                                                      |
|      Carefully verify results versus KPAR=1.                                |
|      Report problems to Paul Kent and Vienna.                               |
|                                                                             |
 ----------------------------------------------------------------------------- 

 POTCAR:    PAW_PBE Zr_sv 04Jan2005               
   VRHFIN =Zr: 4s4p5s4d                                                         
   LEXCH  = PE                                                                  
   EATOM  =  1284.2219 eV,   94.3876 Ry                                         
                                                                                
   TITEL  = PAW_PBE Zr_sv 04Jan2005                                             
   LULTRA =        F    use ultrasoft PP ?                                      
   IUNSCR =        1    unscreen: 0-lin 1-nonlin 2-no                           
   RPACOR =    2.200    partial core radius                                     
   POMASS =   91.224; ZVAL   =   12.000    mass and valenz                      
   RCORE  =    2.500    outmost cutoff radius                                   
   RWIGS  =    3.070; RWIGS  =    1.625    wigner-seitz radius (au A)           
   ENMAX  =  229.898; ENMIN  =  172.424 eV                                      
   ICORE  =        3    local potential                                         
   LCOR   =        T    correct aug charges                                     
   LPAW   =        T    paw PP                                                  
   EAUG   =  461.257                                                            
   DEXC   =    0.000                                                            
   RMAX   =    2.561    core radius for proj-oper                               
   RAUG   =    1.300    factor for augmentation sphere                          
   RDEP   =    2.597    radius for radial grids                                 
   RDEPT  =    2.007    core radius for aug-charge                              
                                                                                
   Atomic configuration                                                         
   11 entries                                                                   
     n  l   j            E        occ.                                          
     1  0  0.50    -17820.0161   2.0000                                         
     2  0  0.50     -2467.0882   2.0000                                         
     2  1  1.50     -2199.6095   6.0000                                         
     3  0  0.50      -402.4863   2.0000                                         
     3  1  1.50      -315.3675   6.0000                                         
     3  2  2.50      -172.4472  10.0000                                         
     4  0  0.50       -52.4146   2.0000                                         
     5  0  0.50        -3.8421   1.0000                                         
     4  1  1.50       -30.5054   6.0000                                         
     4  2  2.50        -2.3341   3.0000                                         
     4  3  2.50        -1.3606   0.0000                                         
   Description                                                                  
     l       E           TYP  RCUT    TYP  RCUT                                 
     0    -52.4145962     23  2.200                                             
     0     -3.8421270     23  2.500                                             
     1    -30.5053914     23  2.200                                             
     1     20.4087390     23  2.200                                             
     2     -2.3340816     23  2.500                                             
     2     -0.6120942     23  2.500                                             
     3     -4.0817478     23  2.500                                             
  local pseudopotential read in
  partial core-charges read in
  partial kinetic energy density read in
  atomic valenz-charges read in
  non local Contribution for L=           0  read in
    real space projection operators read in
  non local Contribution for L=           0  read in
    real space projection operators read in
  non local Contribution for L=           1  read in
    real space projection operators read in
  non local Contribution for L=           1  read in
    real space projection operators read in
  non local Contribution for L=           2  read in
    real space projection operators read in
  non local Contribution for L=           2  read in
    real space projection operators read in
    PAW grid and wavefunctions read in
 
   number of l-projection  operators is LMAX  =           6
   number of lm-projection operators is LMMAX =          18
 
 POTCAR:    PAW_PBE Hf 20Jan2003                  
   VRHFIN =Hf: 6s5d                                                             
   LEXCH  = PE                                                                  
   EATOM  =    75.9011 eV,    5.5786 Ry                                         
                                                                                
   TITEL  = PAW_PBE Hf 20Jan2003                                                
   LULTRA =        F    use ultrasoft PP ?                                      
   IUNSCR =        1    unscreen: 0-lin 1-nonlin 2-no                           
   RPACOR =    2.500    partial core radius                                     
   POMASS =  178.490; ZVAL   =    4.000    mass and valenz                      
   RCORE  =    3.000    outmost cutoff radius                                   
   RWIGS  =    3.050; RWIGS  =    1.614    wigner-seitz radius (au A)           
   ENMAX  =  220.334; ENMIN  =  165.250 eV                                      
   RCLOC  =    2.212    cutoff for local pot                                    
   LCOR   =        T    correct aug charges                                     
   LPAW   =        T    paw PP                                                  
   EAUG   =  335.116                                                            
   DEXC   =    0.000                                                            
   RMAX   =    3.077    core radius for proj-oper                               
   RAUG   =    1.300    factor for augmentation sphere                          
   RDEP   =    3.047    radius for radial grids                                 
   RDEPT  =    2.344    core radius for aug-charge                              
                                                                                
   Atomic configuration                                                         
   16 entries                                                                   
     n  l   j            E        occ.                                          
     1  0  0.50    -65259.4397   2.0000                                         
     2  0  0.50    -11157.9882   2.0000                                         
     2  1  1.50     -9795.2113   6.0000                                         
     3  0  0.50     -2541.4058   2.0000                                         
     3  1  1.50     -2134.4770   6.0000                                         
     3  2  2.50     -1653.5418  10.0000                                         
     4  0  0.50      -510.9575   2.0000                                         
     4  1  1.50      -377.5023   6.0000                                         
     4  2  2.50      -205.2085  10.0000                                         
     4  3  3.50       -15.4905  14.0000                                         
     5  0  0.50       -65.6020   2.0000                                         
     5  1  1.50       -34.2798   6.0000                                         
     5  2  2.50        -1.9877   3.0000                                         
     6  0  0.50        -4.7357   1.0000                                         
     6  1  1.50        -1.3606   0.0000                                         
     5  3  2.50        -1.3606   0.0000                                         
   Description                                                                  
     l       E           TYP  RCUT    TYP  RCUT                                 
     2     -1.9876627     23  2.500                                             
     2      0.0744703     23  2.500                                             
     0     -4.7356889     23  2.600                                             
     0      3.2364747     23  2.600                                             
     1     -1.3605826     23  3.000                                             
     1     27.2116520     23  3.000                                             
  local pseudopotential read in
  partial core-charges read in
  partial kinetic energy density read in
  atomic valenz-charges read in
  non local Contribution for L=           2  read in
    real space projection operators read in
  non local Contribution for L=           2  read in
    real space projection operators read in
  non local Contribution for L=           0  read in
    real space projection operators read in
  non local Contribution for L=           0  read in
    real space projection operators read in
  non local Contribution for L=           1  read in
    real space projection operators read in
  non local Contribution for L=           1  read in
    real space projection operators read in
    PAW grid and wavefunctions read in
 
   number of l-projection  operators is LMAX  =           6
   number of lm-projection operators is LMMAX =          18
 
 POTCAR:    PAW_PBE Ta 17Jan2003                  
   VRHFIN =Ta:  6s5d                                                            
   LEXCH  = PE                                                                  
   EATOM  =   130.6506 eV,    9.6025 Ry                                         
                                                                                
   TITEL  = PAW_PBE Ta 17Jan2003                                                
   LULTRA =        F    use ultrasoft PP ?                                      
   IUNSCR =        1    unscreen: 0-lin 1-nonlin 2-no                           
   RPACOR =    2.330    partial core radius                                     
   POMASS =  180.948; ZVAL   =    5.000    mass and valenz                      
   RCORE  =    2.900    outmost cutoff radius                                   
   RWIGS  =    2.840; RWIGS  =    1.503    wigner-seitz radius (au A)           
   ENMAX  =  223.667; ENMIN  =  167.750 eV                                      
   RCLOC  =    2.205    cutoff for local pot                                    
   LCOR   =        T    correct aug charges                                     
   LPAW   =        T    paw PP                                                  
   EAUG   =  332.075                                                            
   DEXC   =    0.000                                                            
   RMAX   =    2.970    core radius for proj-oper                               
   RAUG   =    1.300    factor for augmentation sphere                          
   RDEP   =    3.060    radius for radial grids                                 
   RDEPT  =    2.354    core radius for aug-charge                              
                                                                                
   Atomic configuration                                                         
   16 entries                                                                   
     n  l   j            E        occ.                                          
     1  0  0.50    -67341.2807   2.0000                                         
     2  0  0.50    -11566.9376   2.0000                                         
     2  1  1.50    -10134.1182   6.0000                                         
     3  0  0.50     -2648.5620   2.0000                                         
     3  1  1.50     -2222.6012   6.0000                                         
     3  2  2.50     -1726.3120  10.0000                                         
     4  0  0.50      -538.6961   2.0000                                         
     4  1  1.50      -399.0129   6.0000                                         
     4  2  2.50      -220.3959  10.0000                                         
     4  3  3.50       -23.0374  14.0000                                         
     5  0  0.50       -71.2901   2.0000                                         
     5  1  1.50       -37.8225   6.0000                                         
     5  2  2.50        -2.6455   4.0000                                         
     6  0  0.50        -4.9623   1.0000                                         
     6  1  1.50        -1.3606   0.0000                                         
     5  3  2.50        -1.3606   0.0000                                         
   Description                                                                  
     l       E           TYP  RCUT    TYP  RCUT                                 
     2     -2.6455043     23  2.500                                             
     2     -0.6258895     23  2.500                                             
     0     -4.9622780     23  2.500                                             
     0      4.7531321     23  2.500                                             
     1     -1.3605826     23  2.900                                             
     1     27.2116520     23  2.900                                             
  local pseudopotential read in
  partial core-charges read in
  partial kinetic energy density read in
  atomic valenz-charges read in
  non local Contribution for L=           2  read in
    real space projection operators read in
  non local Contribution for L=           2  read in
    real space projection operators read in
  non local Contribution for L=           0  read in
    real space projection operators read in
  non local Contribution for L=           0  read in
    real space projection operators read in
  non local Contribution for L=           1  read in
    real space projection operators read in
  non local Contribution for L=           1  read in
    real space projection operators read in
    PAW grid and wavefunctions read in
 
   number of l-projection  operators is LMAX  =           6
   number of lm-projection operators is LMMAX =          18
 
 POTCAR:    PAW_PBE Nb_sv 25May2007               
   VRHFIN =Nb: 4p5s4d                                                           
   LEXCH  = PE                                                                  
   EATOM  =  1555.1913 eV,  114.3033 Ry                                         
                                                                                
   TITEL  = PAW_PBE Nb_sv 25May2007                                             
   LULTRA =        F    use ultrasoft PP ?                                      
   IUNSCR =        1    unscreen: 0-lin 1-nonlin 2-no                           
   RPACOR =    1.800    partial core radius                                     
   POMASS =   92.910; ZVAL   =   13.000    mass and valenz                      
   RCORE  =    2.400    outmost cutoff radius                                   
   RWIGS  =    2.400; RWIGS  =    1.270    wigner-seitz radius (au A)           
   ENMAX  =  293.235; ENMIN  =  219.927 eV                                      
   ICORE  =        3    local potential                                         
   LCOR   =        T    correct aug charges                                     
   LPAW   =        T    paw PP                                                  
   EAUG   =  455.659                                                            
   DEXC   =    0.000                                                            
   RMAX   =    2.456    core radius for proj-oper                               
   RAUG   =    1.300    factor for augmentation sphere                          
   RDEP   =    2.451    radius for radial grids                                 
   RDEPT  =    1.956    core radius for aug-charge                              
                                                                                
   Atomic configuration                                                         
   11 entries                                                                   
     n  l   j            E        occ.                                          
     1  0  0.50    -18805.2457   2.0000                                         
     2  0  0.50     -2630.2869   2.0000                                         
     2  1  1.50     -2348.4046   6.0000                                         
     3  0  0.50      -438.8757   2.0000                                         
     3  1  1.50      -346.7588   6.0000                                         
     3  2  2.50      -196.2560  10.0000                                         
     4  0  0.50       -58.3859   2.0000                                         
     5  0  0.50        -3.9816   1.0000                                         
     4  1  1.50       -34.5141   6.0000                                         
     4  2  2.50        -3.0408   4.0000                                         
     4  3  2.50        -1.3606   0.0000                                         
   Description                                                                  
     l       E           TYP  RCUT    TYP  RCUT                                 
     0    -58.3859094     23  2.200                                             
     0     -3.9816262     23  2.200                                             
     1    -34.5140738     23  2.200                                             
     1     13.6058260     23  2.200                                             
     2     -3.0408010     23  2.200                                             
     2     -0.1283038     23  2.200                                             
     3     -1.3605826     23  2.400                                             
  local pseudopotential read in
  partial core-charges read in
  partial kinetic energy density read in
  atomic valenz-charges read in
  non local Contribution for L=           0  read in
    real space projection operators read in
  non local Contribution for L=           0  read in
    real space projection operators read in
  non local Contribution for L=           1  read in
    real space projection operators read in
  non local Contribution for L=           1  read in
    real space projection operators read in
  non local Contribution for L=           2  read in
    real space projection operators read in
  non local Contribution for L=           2  read in
    real space projection operators read in
    PAW grid and wavefunctions read in
 
   number of l-projection  operators is LMAX  =           6
   number of lm-projection operators is LMMAX =          18
 
 Optimization of the real space projectors (new method)

 maximal supplied QI-value         = 15.12
 optimisation between [QCUT,QGAM] = [  8.77, 17.69] = [ 21.53, 87.61] Ry 
 Optimized for a Real-space Cutoff    1.74 Angstroem

   l    n(q)    QCUT    max X(q) W(low)/X(q) W(high)/X(q)  e(spline) 
   0      9     8.768    12.107    0.28E-04    0.53E-06    0.29E-07
   0      9     8.768     9.948    0.36E-04    0.50E-05    0.64E-07
   1      9     8.768     3.563    0.14E-04    0.16E-04    0.88E-07
   1      9     8.768     4.524    0.21E-03    0.33E-03    0.19E-06
   2      8     8.768    87.261    0.19E-03    0.25E-03    0.24E-06
   2      8     8.768    70.950    0.19E-03    0.24E-03    0.24E-06
 Optimization of the real space projectors (new method)

 maximal supplied QI-value         = 12.47
 optimisation between [QCUT,QGAM] = [  8.86, 17.71] = [ 21.96, 87.83] Ry 
 Optimized for a Real-space Cutoff    1.90 Angstroem

   l    n(q)    QCUT    max X(q) W(low)/X(q) W(high)/X(q)  e(spline) 
   2      9     8.855    48.111    0.22E-03    0.80E-04    0.10E-05
   2      9     8.855    40.545    0.21E-03    0.76E-04    0.95E-06
   0     10     8.855   121.658    0.27E-04    0.12E-04    0.11E-06
   0     10     8.855    71.177    0.22E-04    0.11E-04    0.99E-07
   1     10     8.855    14.183    0.65E-04    0.10E-03    0.98E-07
   1     10     8.855     8.257    0.43E-04    0.73E-04    0.72E-07
 Optimization of the real space projectors (new method)

 maximal supplied QI-value         = 12.85
 optimisation between [QCUT,QGAM] = [  8.87, 17.73] = [ 22.01, 88.06] Ry 
 Optimized for a Real-space Cutoff    1.90 Angstroem

   l    n(q)    QCUT    max X(q) W(low)/X(q) W(high)/X(q)  e(spline) 
   2      9     8.867    62.315    0.23E-03    0.62E-04    0.11E-05
   2      9     8.867    52.185    0.23E-03    0.62E-04    0.11E-05
   0     10     8.867   103.837    0.15E-04    0.23E-04    0.98E-07
   0     10     8.867    59.728    0.12E-04    0.21E-04    0.89E-07
   1     10     8.867    13.958    0.50E-04    0.22E-04    0.14E-06
   1     10     8.867     8.441    0.36E-04    0.19E-04    0.98E-07
 Optimization of the real space projectors (new method)

 maximal supplied QI-value         = 15.68
 optimisation between [QCUT,QGAM] = [  8.78, 17.72] = [ 21.60, 87.97] Ry 
 Optimized for a Real-space Cutoff    1.96 Angstroem

   l    n(q)    QCUT    max X(q) W(low)/X(q) W(high)/X(q)  e(spline) 
   0     10     8.783    10.201    0.29E-04    0.25E-05    0.69E-07
   0     10     8.783     8.174    0.45E-04    0.57E-05    0.14E-06
   1     10     8.783     3.488    0.76E-05    0.24E-04    0.95E-07
   1     10     8.783     4.917    0.78E-04    0.14E-03    0.46E-06
   2      9     8.783   153.744    0.22E-03    0.34E-04    0.15E-05
   2      9     8.783   126.342    0.22E-03    0.35E-04    0.15E-05
  PAW_PBE Zr_sv 04Jan2005               :
 energy of atom  1       EATOM=-1284.2219
 kinetic energy error for atom=    0.0483 (will be added to EATOM!!)
  PAW_PBE Hf 20Jan2003                  :
 energy of atom  2       EATOM=  -75.9011
 kinetic energy error for atom=    0.0071 (will be added to EATOM!!)
  PAW_PBE Ta 17Jan2003                  :
 energy of atom  3       EATOM= -130.6506
 kinetic energy error for atom=    0.0121 (will be added to EATOM!!)
  PAW_PBE Nb_sv 25May2007               :
 energy of atom  4       EATOM=-1555.1913
 kinetic energy error for atom=    0.0655 (will be added to EATOM!!)
 
 
 POSCAR: generated by pypospack                  
  positions in direct lattice
  No initial velocities read in
 exchange correlation table for  LEXCH =        8
   RHO(1)=    0.500       N(1)  =     2000
   RHO(2)=  100.500       N(2)  =     4000
 


--------------------------------------------------------------------------------------------------------


 ion  position               nearest neighbor table
   1  0.774  0.844  0.498-  27 2.93  25 2.94  36 2.95  12 2.97  35 2.99  23 3.00  18 3.15  22 3.17
                            20 3.25   3 3.28  29 3.31   6 3.35  24 3.57  20 3.77
   2  0.015  0.006  0.008-  26 3.01  34 3.02   9 3.04  17 3.07   6 3.07   4 3.08  19 3.09  36 3.10
                            29 3.15  10 3.30  15 3.35  22 3.39  16 3.56  10 3.71
   3  0.770  0.165  0.496-  30 3.00  31 3.00  36 3.02   5 3.03  32 3.04  22 3.09  35 3.12  18 3.22
                            14 3.27   1 3.28   4 3.34  24 3.38   9 3.44  14 3.74
   4  0.735  0.173  0.172-  36 2.92  33 2.93  30 2.93  35 2.94  31 2.97  15 3.06  10 3.06   2 3.08
                            21 3.28  26 3.34   3 3.34  29 3.45   9 3.50
   5  0.493  0.332  0.654-  34 2.96   7 3.02   3 3.03   8 3.04  14 3.06  24 3.06   9 3.08  13 3.08
                            30 3.17  32 3.39  18 3.40  12 3.45
   6  0.772  0.840  0.824-  27 2.89  22 3.00  16 3.03  12 3.05  28 3.05   2 3.07  18 3.08  10 3.14
                            19 3.29   9 3.35   1 3.35   8 3.59  19 3.75
   7  0.235  0.507  0.495-  27 2.90  30 2.95  31 2.99  25 2.99  32 3.01   5 3.02  23 3.06  12 3.11
                            24 3.28  20 3.32  11 3.35  14 3.50  13 3.53  24 3.73
   8  0.734  0.491  0.840-  28 2.94  27 2.99  32 3.01  12 3.02  16 3.03   5 3.04  33 3.04  15 3.06
                             9 3.31  13 3.36  21 3.43  24 3.59   6 3.59  13 3.65
   9  0.757  0.168  0.831-  32 2.95  22 2.99  33 3.04   2 3.04  10 3.07   5 3.08  15 3.09  18 3.12
                             8 3.31   6 3.35  34 3.41   3 3.44   4 3.50
  10  0.486  0.003  0.998-  26 3.00  34 3.02  29 3.05  17 3.06   4 3.06   9 3.07  19 3.13   6 3.14
                            33 3.22   2 3.30  28 3.33  18 3.37  35 3.39   2 3.71
  11  0.270  0.508  0.169-  33 2.95  30 2.98  28 3.01  23 3.02  25 3.02  31 3.02  15 3.05  16 3.05
                            21 3.18  17 3.20   7 3.35  13 3.40
  12  0.526  0.668  0.652-  24 2.93   1 2.97   8 3.02   6 3.05  19 3.08  20 3.10   7 3.11  27 3.14
                            13 3.16  23 3.19  18 3.41   5 3.45
  13  0.254  0.508  0.838-  33 2.99  32 3.01  15 3.03  27 3.04   5 3.08  19 3.09  16 3.13  28 3.14
                            12 3.16   8 3.36  34 3.37  11 3.40   7 3.53   8 3.65
  14  0.236  0.165  0.483-  22 2.88  30 2.99  31 2.99  36 3.00  35 3.01  18 3.04  32 3.05   5 3.06
                            26 3.08   3 3.27  20 3.41   7 3.50   3 3.74
  15  0.013  0.333  0.009-  34 2.89  26 2.99  13 3.03  11 3.05   4 3.06   8 3.06   9 3.09  21 3.09
                            31 3.22  33 3.23   2 3.35  16 3.36  32 3.44
  16  0.966  0.660  0.019-  29 2.88  21 2.89   8 3.03   6 3.03  11 3.05  28 3.08  17 3.09  25 3.10
                            19 3.12  13 3.13  15 3.36   2 3.56
  17  0.258  0.820  0.175-  36 2.90  28 2.91  35 2.94  23 2.98  25 3.02  10 3.06   2 3.07  16 3.09
                            11 3.20  20 3.24  29 3.36  19 3.51
  18  0.474  1.000  0.670-  34 2.93  22 3.02  20 3.04  14 3.04  19 3.05   6 3.08   9 3.12   1 3.15
                             3 3.22  10 3.37   5 3.40  12 3.41
  19  0.240  0.811  0.834-  22 2.93  28 3.02  18 3.05  27 3.06  12 3.08   2 3.09  13 3.09  16 3.12
                            10 3.13   6 3.29  17 3.51  20 3.54   6 3.75
  20  0.238  0.831  0.490-  22 2.98  35 3.00  36 3.02  23 3.02  18 3.04  12 3.10  25 3.12  27 3.16
                            17 3.24   1 3.25   7 3.32  14 3.41  19 3.54   1 3.77
  21  0.724  0.494  0.174-  30 2.81  23 2.81  31 2.85  25 2.87  28 2.88  16 2.89  15 3.09  33 3.10
                            11 3.18  24 3.27   4 3.28   8 3.43
  22  0.044  0.012  0.678-  34 2.72  14 2.88  19 2.93  20 2.98   9 2.99   6 3.00  18 3.02   3 3.09
                             1 3.17  32 3.31   2 3.39
  23  0.527  0.667  0.342-  21 2.81  29 2.84  24 2.87  17 2.98   1 3.00  11 3.02  20 3.02   7 3.06
                            25 3.12  12 3.19
  24  0.767  0.495  0.491-  27 2.80  31 2.80  25 2.82  30 2.85  23 2.87  12 2.93  32 3.01   5 3.06
                            21 3.27   7 3.28   3 3.38   1 3.57   8 3.59   7 3.73
  25  0.970  0.659  0.321-  24 2.82  29 2.84  21 2.87   1 2.94   7 2.99  11 3.02  17 3.02  16 3.10
                            23 3.12  20 3.12  31 3.22
  26  0.258  0.170  0.183-  33 2.84  36 2.86  35 2.89  31 2.92  15 2.99  10 3.00  30 3.00   2 3.01
                            14 3.08   4 3.34
  27  0.973  0.652  0.662-  24 2.80   6 2.89   7 2.90   1 2.93   8 2.99  13 3.04  19 3.06  12 3.14
                            20 3.16
  28  0.528  0.678  0.008-  29 2.79  21 2.88  17 2.91   8 2.94  11 3.01  19 3.02   6 3.05  16 3.08
                            13 3.14  10 3.33
  29  0.737  0.835  0.176-  35 2.75  28 2.79  23 2.84  36 2.84  25 2.84  16 2.88  10 3.05   2 3.15
                             1 3.31  17 3.36   4 3.45
  30  0.507  0.341  0.346-  21 2.81  24 2.85   4 2.93   7 2.95  11 2.98  14 2.99   3 3.00  26 3.00
                             5 3.17
  31  0.992  0.344  0.322-  24 2.80  21 2.85  26 2.92   4 2.97   7 2.99  14 2.99   3 3.00  11 3.02
                            15 3.22  25 3.22
  32  0.009  0.334  0.674-  34 2.77   9 2.95   7 3.01  13 3.01  24 3.01   8 3.01   3 3.04  14 3.05
                            22 3.31   5 3.39  15 3.44
  33  0.474  0.317  0.001-  34 2.80  26 2.84   4 2.93  11 2.95  13 2.99   9 3.04   8 3.04  21 3.10
                            10 3.22  15 3.23
  34  0.242  0.179  0.829-  22 2.72  32 2.77  33 2.80  15 2.89  18 2.93   5 2.96   2 3.02  10 3.02
                            13 3.37   9 3.41
  35  0.503  0.992  0.327-  29 2.75  26 2.89  17 2.94   4 2.94   1 2.99  20 3.00  14 3.01   3 3.12
                            10 3.39
  36  0.998  0.997  0.309-  29 2.84  26 2.86  17 2.90   4 2.92   1 2.95  14 3.00   3 3.02  20 3.02
                             2 3.10
 
  LATTYP: Found a triclinic cell.
 ALAT       =     7.0080534974
 B/A-ratio  =     1.4593125345
 C/A-ratio  =     1.4653928973
 COS(alpha) =     0.0000351828
 COS(beta)  =     0.0050499499
 COS(gamma) =     0.0137166875
  
  Lattice vectors:
  
 A1 = (   7.0078672100,   0.0479825539,   0.0175688278)
 A2 = (   0.0702603464,  10.2266989452,   0.0005487141)
 A3 = (   0.0261187912,  -0.0003691349,  10.2695185983)


Analysis of symmetry for initial positions (statically):
=====================================================================
 Subroutine PRICEL returns:
 Original cell was already a primitive cell.
 

 Routine SETGRP: Setting up the symmetry group for a 
 triclinic supercell.


 Subroutine GETGRP returns: Found  1 space group operations
 (whereof  1 operations were pure point group operations)
 out of a pool of  2 trial point group operations.


The static configuration has the point symmetry C_1 .


Analysis of symmetry for dynamics (positions and initial velocities):
=====================================================================
 Subroutine PRICEL returns:
 Original cell was already a primitive cell.
 

 Routine SETGRP: Setting up the symmetry group for a 
 triclinic supercell.


 Subroutine GETGRP returns: Found  1 space group operations
 (whereof  1 operations were pure point group operations)
 out of a pool of  2 trial point group operations.


The dynamic configuration has the point symmetry C_1 .


 Subroutine INISYM returns: Found  1 space group operations
 (whereof  1 operations are pure point group operations),
 and found     1 'primitive' translations

 
 
 KPOINTS: k-points                                

Automatic generation of k-mesh.
Space group operators:
 irot       det(A)        alpha          n_x          n_y          n_z        tau_x        tau_y        tau_z
    1     1.000000     0.000001     1.000000     0.000000     0.000000     0.000000     0.000000     0.000000
 
 Subroutine IBZKPT returns following result:
 ===========================================
 
 Found     14 irreducible k-points:
 
 Following reciprocal coordinates:
            Coordinates               Weight
  0.000000  0.000000  0.000000      1.000000
  0.333333 -0.000000 -0.000000      2.000000
  0.000000  0.333333 -0.000000      2.000000
  0.333333  0.333333  0.000000      2.000000
 -0.333333  0.333333 -0.000000      2.000000
  0.000000 -0.000000  0.333333      2.000000
  0.333333 -0.000000  0.333333      2.000000
 -0.333333  0.000000  0.333333      2.000000
  0.000000  0.333333  0.333333      2.000000
  0.333333  0.333333  0.333333      2.000000
 -0.333333  0.333333  0.333333      2.000000
  0.000000 -0.333333  0.333333      2.000000
  0.333333 -0.333333  0.333333      2.000000
 -0.333333 -0.333333  0.333333      2.000000
 
 Following cartesian coordinates:
            Coordinates               Weight
  0.000000  0.000000  0.000000      1.000000
  0.237285 -0.001630 -0.000604      2.000000
 -0.001113  0.162599  0.000009      2.000000
  0.236171  0.160969 -0.000595      2.000000
 -0.238398  0.164229  0.000612      2.000000
 -0.000406 -0.000006  0.161914      2.000000
  0.236879 -0.001636  0.161311      2.000000
 -0.237690  0.001624  0.162518      2.000000
 -0.001519  0.162593  0.161923      2.000000
  0.235765  0.160963  0.161319      2.000000
 -0.238804  0.164223  0.162526      2.000000
  0.000707 -0.162605  0.161905      2.000000
  0.237992 -0.164235  0.161302      2.000000
 -0.236577 -0.160974  0.162509      2.000000
 


--------------------------------------------------------------------------------------------------------




 Dimension of arrays:
   k-points           NKPTS =     14   k-points in BZ     NKDIM =     14   number of bands    NBANDS=    188
   number of dos      NEDOS =    301   number of ions     NIONS =     36
   non local maximal  LDIM  =      6   non local SUM 2l+1 LMDIM =     18
   total plane-waves  NPLWV = 144000
   max r-space proj   IRMAX =   6226   max aug-charges    IRDMAX=  13517
   dimension x,y,z NGX =    40 NGY =   60 NGZ =   60
   dimension x,y,z NGXF=    80 NGYF=  120 NGZF=  120
   support grid    NGXF=    80 NGYF=  120 NGZF=  120
   ions per type =               8  12   5  11
 NGX,Y,Z   is equivalent  to a cutoff of   9.49,  9.75,  9.71 a.u.
 NGXF,Y,Z  is equivalent  to a cutoff of  18.98, 19.51, 19.43 a.u.


 I would recommend the setting:
   dimension x,y,z NGX =    40 NGY =   58 NGZ =   58
 SYSTEM =  automatically generated by mexm         
 POSCAR =  generated by pypospack                  

 Startparameter for this run:
   NWRITE =      2    write-flag & timer
   PREC   = accura    normal or accurate (medium, high low for compatibility)
   ISTART =      0    job   : 0-new  1-cont  2-samecut
   ICHARG =      2    charge: 1-file 2-atom 10-const
   ISPIN  =      1    spin polarized calculation?
   LNONCOLLINEAR =      F non collinear calculations
   LSORBIT =      F    spin-orbit coupling
   INIWAV =      1    electr: 0-lowe 1-rand  2-diag
   LASPH  =      F    aspherical Exc in radial PAW
   METAGGA=      F    non-selfconsistent MetaGGA calc.

 Electronic Relaxation 1
   ENCUT  =  300.0 eV  22.05 Ry    4.70 a.u.   9.90 14.44 14.50*2*pi/ulx,y,z
   ENINI  =  300.0     initial cutoff
   ENAUG  =  461.3 eV  augmentation charge cutoff
   NELM   =     70;   NELMIN=  2; NELMDL= -5     # of ELM steps 
   EDIFF  = 0.1E-04   stopping-criterion for ELM
   LREAL  =      T    real-space projection
   NLSPLINE    = F    spline interpolate recip. space projectors
   LCOMPAT=      F    compatible to vasp.4.4
   GGA_COMPAT  = T    GGA compatible to vasp.4.4-vasp.4.6
   LMAXPAW     = -100 max onsite density
   LMAXMIX     =    2 max onsite mixed and CHGCAR
   VOSKOWN=      0    Vosko Wilk Nusair interpolation
   ROPT   =   -0.00025  -0.00025  -0.00025  -0.00025
 Ionic relaxation
   EDIFFG = -.1E-01   stopping-criterion for IOM
   NSW    =    300    number of steps for IOM
   NBLOCK =      1;   KBLOCK =    300    inner block; outer block 
   IBRION =      2    ionic relax: 0-MD 1-quasi-New 2-CG
   NFREE  =      1    steps in history (QN), initial steepest desc. (CG)
   ISIF   =      3    stress and relaxation
   IWAVPR =     11    prediction:  0-non 1-charg 2-wave 3-comb
   ISYM   =      1    0-nonsym 1-usesym 2-fastsym
   LCORR  =      T    Harris-Foulkes like correction to forces

   POTIM  = 0.1500    time-step for ionic-motion
   TEIN   =    0.0    initial temperature
   TEBEG  =    0.0;   TEEND  =   0.0 temperature during run
   SMASS  =  -3.00    Nose mass-parameter (am)
   estimated Nose-frequenzy (Omega)   =  0.10E-29 period in steps =****** mass=  -0.112E-26a.u.
   SCALEE = 1.0000    scale energy and forces
   NPACO  =    256;   APACO  = 16.0  distance and # of slots for P.C.
   PSTRESS=    0.0 pullay stress

  Mass of Ions in am
   POMASS =  91.22178.49180.95 92.91
  Ionic Valenz
   ZVAL   =  12.00  4.00  5.00 13.00
  Atomic Wigner-Seitz radii
   RWIGS  =  -1.00 -1.00 -1.00 -1.00
  virtual crystal weights 
   VCA    =   1.00  1.00  1.00  1.00
   NELECT =     312.0000    total number of electrons
   NUPDOWN=      -1.0000    fix difference up-down

 DOS related values:
   EMIN   =  10.00;   EMAX   =-10.00  energy-range for DOS
   EFERMI =   0.00
   ISMEAR =     1;   SIGMA  =   0.15  broadening in eV -4-tet -1-fermi 0-gaus

 Electronic relaxation 2 (details)
   IALGO  =     68    algorithm
   LDIAG  =      T    sub-space diagonalisation (order eigenvalues)
   LSUBROT=      F    optimize rotation matrix (better conditioning)
   TURBO    =      0    0=normal 1=particle mesh
   IRESTART =      0    0=no restart 2=restart with 2 vectors
   NREBOOT  =      0    no. of reboots
   NMIN     =      0    reboot dimension
   EREF     =   0.00    reference energy to select bands
   IMIX   =      4    mixing-type and parameters
     AMIX     =   0.40;   BMIX     =  1.00
     AMIX_MAG =   1.60;   BMIX_MAG =  1.00
     AMIN     =   0.10
     WC   =   100.;   INIMIX=   1;  MIXPRE=   1;  MAXMIX= -45

 Intra band minimization:
   WEIMIN = 0.0010     energy-eigenvalue tresh-hold
   EBREAK =  0.13E-07  absolut break condition
   DEPER  =   0.30     relativ break condition  

   TIME   =   0.40     timestep for ELM

  volume/ion in A,a.u.               =      20.44       137.96
  Fermi-wavevector in a.u.,A,eV,Ry     =   1.229826  2.324034 20.578426  1.512472
  Thomas-Fermi vector in A             =   2.364698
 
 Write flags
   LWAVE  =      F    write WAVECAR
   LCHARG =      F    write CHGCAR
   LVTOT  =      F    write LOCPOT, total local potential
   LVHAR  =      F    write LOCPOT, Hartree potential only
   LELF   =      F    write electronic localiz. function (ELF)
   LORBIT =      0    0 simple, 1 ext, 2 COOP (PROOUT)


 Dipole corrections
   LMONO  =      F    monopole corrections only (constant potential shift)
   LDIPOL =      F    correct potential (dipole corrections)
   IDIPOL =      0    1-x, 2-y, 3-z, 4-all directions 
   EPSILON=  1.0000000 bulk dielectric constant

 Exchange correlation treatment:
   GGA     =    --    GGA type
   LEXCH   =     8    internal setting for exchange type
   VOSKOWN=      0    Vosko Wilk Nusair interpolation
   LHFCALC =     F    Hartree Fock is set to
   LHFONE  =     F    Hartree Fock one center treatment
   AEXX    =    0.0000 exact exchange contribution

 Linear response parameters
   LEPSILON=     F    determine dielectric tensor
   LRPA    =     F    only Hartree local field effects (RPA)
   LNABLA  =     F    use nabla operator in PAW spheres
   LVEL    =     F    velocity operator in full k-point grid
   LINTERFAST=   F  fast interpolation
   KINTER  =     0    interpolate to denser k-point grid
   CSHIFT  =0.1000    complex shift for real part using Kramers Kronig
   OMEGAMAX=  -1.0    maximum frequency
   DEG_THRESHOLD= 0.2000000E-02 threshold for treating states as degnerate
   RTIME   =    0.100 relaxation time in fs

 Orbital magnetization related:
   ORBITALMAG=     F  switch on orbital magnetization
   LCHIMAG   =     F  perturbation theory with respect to B field
   DQ        =  0.001000  dq finite difference perturbation B field



--------------------------------------------------------------------------------------------------------


 conjugate gradient relaxation of ions
 charge density and potential will be updated during run
 non-spin polarized calculation
 RMM-DIIS sequential band-by-band and
  variant of blocked Davidson during initial phase
 perform sub-space diagonalisation
    before iterative eigenvector-optimisation
 modified Broyden-mixing scheme, WC =      100.0
 initial mixing is a Kerker type mixing with AMIX =  0.4000 and BMIX =      1.0000
 Hartree-type preconditioning will be used
 using additional bands           32
 real space projection scheme for non local part
 use partial core corrections
 calculate Harris-corrections to forces 
   (improved forces if not selfconsistent)
 use gradient corrections 
 use of overlap-Matrix (Vanderbilt PP)
 Methfessel and Paxton  Order N= 1 SIGMA  =   0.15


--------------------------------------------------------------------------------------------------------


  energy-cutoff  :      300.00
  volume of cell :      735.95
      direct lattice vectors                 reciprocal lattice vectors
     7.007867210  0.047982554  0.017568828     0.142704391 -0.000980400 -0.000362980
     0.070260346 10.226698945  0.000548714    -0.000669562  0.097787864  0.000005218
     0.026118791 -0.000369135 10.269518598    -0.000244099 -0.000003548  0.097376169

  length of vectors
     7.008053497 10.226940311 10.269551819     0.142708220  0.097790156  0.097376475


 
 k-points in units of 2pi/SCALE and weight: k-points                                
   0.00000000  0.00000000  0.00000000       0.037
   0.23728458 -0.00163018 -0.00060355       0.074
  -0.00111333  0.16259873  0.00000868       0.074
   0.23617125  0.16096855 -0.00059488       0.074
  -0.23839791  0.16422891  0.00061223       0.074
  -0.00040588 -0.00000590  0.16191417       0.074
   0.23687870 -0.00163608  0.16131062       0.074
  -0.23769046  0.00162428  0.16251772       0.074
  -0.00151921  0.16259283  0.16192285       0.074
   0.23576537  0.16096265  0.16131930       0.074
  -0.23880379  0.16422301  0.16252640       0.074
   0.00070745 -0.16260462  0.16190550       0.074
   0.23799203 -0.16423481  0.16130194       0.074
  -0.23657713 -0.16097444  0.16250905       0.074
 
 k-points in reciprocal lattice and weights: k-points                                
   0.00000000  0.00000000  0.00000000       0.037
   0.33333333 -0.00000000 -0.00000000       0.074
   0.00000000  0.33333333 -0.00000000       0.074
   0.33333333  0.33333333  0.00000000       0.074
  -0.33333333  0.33333333 -0.00000000       0.074
   0.00000000 -0.00000000  0.33333333       0.074
   0.33333333 -0.00000000  0.33333333       0.074
  -0.33333333  0.00000000  0.33333333       0.074
   0.00000000  0.33333333  0.33333333       0.074
   0.33333333  0.33333333  0.33333333       0.074
  -0.33333333  0.33333333  0.33333333       0.074
   0.00000000 -0.33333333  0.33333333       0.074
   0.33333333 -0.33333333  0.33333333       0.074
  -0.33333333 -0.33333333  0.33333333       0.074
 
 position of ions in fractional coordinates (direct lattice) 
   0.77443600  0.84396700  0.49796000
   0.01466700  0.00601100  0.00784200
   0.76992700  0.16503200  0.49629000
   0.73495000  0.17273300  0.17182500
   0.49262000  0.33150300  0.65439200
   0.77212100  0.84033500  0.82417500
   0.23452700  0.50694100  0.49453600
   0.73359200  0.49071800  0.84031200
   0.75676100  0.16769900  0.83094800
   0.48603400  0.00255300  0.99813100
   0.27035200  0.50776100  0.16922200
   0.52590400  0.66819500  0.65235100
   0.25401200  0.50836700  0.83802400
   0.23602400  0.16491300  0.48302800
   0.01288300  0.33322700  0.00871900
   0.96647700  0.66041000  0.01913900
   0.25844100  0.82020000  0.17477500
   0.47425600  0.99982600  0.66967300
   0.24005100  0.81092100  0.83374900
   0.23764900  0.83119900  0.48997300
   0.72429000  0.49392800  0.17403500
   0.04380800  0.01161200  0.67781800
   0.52665500  0.66683600  0.34160500
   0.76664500  0.49520600  0.49128500
   0.97049400  0.65882100  0.32141000
   0.25845000  0.16972600  0.18338200
   0.97287400  0.65204200  0.66183900
   0.52782800  0.67789900  0.00833900
   0.73709000  0.83516900  0.17648800
   0.50695300  0.34146900  0.34561100
   0.99249700  0.34372600  0.32191500
   0.00898500  0.33450000  0.67402700
   0.47361200  0.31731400  0.00142000
   0.24224600  0.17938300  0.82924200
   0.50349300  0.99242800  0.32746200
   0.99839300  0.99743400  0.30905800
 
 position of ions in cartesian coordinates  (Angst):
   5.49944818  8.66797203  5.12787851
   0.10341155  0.06217355  0.08079455
   5.42010388  1.72449245  5.11027666
   5.16705615  1.80168974  1.77756702
   3.49259899  3.41357699  6.72912747
   5.49149012  8.63059716  8.47790686
   1.69206861  5.19540364  5.08304518
   5.19734127  5.05331468  8.64275733
   5.33676654  1.75101178  8.54682336
   3.43231108  0.04906147 10.25886532
   1.93468625  5.20562860  1.74285686
   3.74945163  6.85842251  6.70893689
   1.83768858  5.21079506  8.61084470
   1.67822780  1.69766233  4.96470218
   0.11392273  3.40842715  0.08994912
   6.81984300  6.80018122  0.21389056
   1.87331266  8.40027462  1.79984567
   3.41126224 10.24742831  6.88610007
   1.76099764  8.30425543  8.56686324
   1.73661047  8.51164408  5.03641814
   5.11497728  5.08594200  1.80025162
   0.32552030  0.12060424  6.96164058
   3.74650274  6.84467517  3.51773751
   5.42017147  5.10092691  5.05900123
   6.85577691  6.78401216  3.31813792
   1.82789800  1.74807010  1.88787865
   6.88087094  6.71467390  6.81421796
   3.74679576  6.95799245  0.09528281
   5.22871776  8.57632424  1.82585487
   3.58567798  3.51629798  3.55835253
   6.98784552  3.56268603  3.32353770
   0.10407254  3.42101311  6.92227421
   3.34134169  3.26779934  0.02307764
   1.73189011  1.84581342  8.52027055
   3.60669333 10.17330038  3.37226744
   7.07475785 10.24824860  3.19196478
 


--------------------------------------------------------------------------------------------------------


 k-point  1 :   0.0000 0.0000 0.0000  plane waves:    8699
 k-point  2 :   0.3333-0.0000-0.0000  plane waves:    8699
 k-point  3 :   0.0000 0.3333-0.0000  plane waves:    8674
 k-point  4 :   0.3333 0.3333 0.0000  plane waves:    8688
 k-point  5 :  -0.3333 0.3333-0.0000  plane waves:    8691
 k-point  6 :   0.0000-0.0000 0.3333  plane waves:    8682
 k-point  7 :   0.3333-0.0000 0.3333  plane waves:    8687
 k-point  8 :  -0.3333 0.0000 0.3333  plane waves:    8679
 k-point  9 :   0.0000 0.3333 0.3333  plane waves:    8678
 k-point 10 :   0.3333 0.3333 0.3333  plane waves:    8687
 k-point 11 :  -0.3333 0.3333 0.3333  plane waves:    8690
 k-point 12 :   0.0000-0.3333 0.3333  plane waves:    8659
 k-point 13 :   0.3333-0.3333 0.3333  plane waves:    8687
 k-point 14 :  -0.3333-0.3333 0.3333  plane waves:    8692

 maximum and minimum number of plane-waves per node :      1757     1713

 maximum number of plane-waves:      8699
 maximum index in each direction: 
   IXMAX=   10   IYMAX=   14   IZMAX=   14
   IXMIN=  -10   IYMIN=  -14   IZMIN=  -14

 WARNING: aliasing errors must be expected set NGX to  42 to avoid them
 NGY is ok and might be reduce to  58
 NGZ is ok and might be reduce to  58
 aliasing errors are usually negligible using standard VASP settings
 and one can safely disregard these warnings

 real space projection operators:
  total allocation   :      27111.52 KBytes
  max/ min on nodes  :       5470.17       5373.70


 parallel 3D FFT for wavefunctions:
    minimum data exchange during FFTs selected (reduces bandwidth)
 parallel 3D FFT for charge:
    minimum data exchange during FFTs selected (reduces bandwidth)


 total amount of memory used by VASP on root node    68754. kBytes
========================================================================

   base      :      30000. kBytes
   nonlr-proj:      10411. kBytes
   fftplans  :       2814. kBytes
   grid      :       5360. kBytes
   one-center:        124. kBytes
   wavefun   :      20045. kBytes
 
     INWAV:  cpu time    0.0000: real time    0.0000
 Broyden mixing: mesh for mixing (old mesh)
   NGX = 19   NGY = 29   NGZ = 29
  (NGX  = 80   NGY  =120   NGZ  =120)
  gives a total of  15979 points

 initial charge density was supplied:
 charge density of overlapping atoms calculated
 number of electron     312.0000000 magnetization 
 keeping initial charge density in first step


--------------------------------------------------------------------------------------------------------


 Maximum index for non-local projection operator         1206
 Maximum index for augmentation-charges          675 (set IRDMAX)


--------------------------------------------------------------------------------------------------------


 First call to EWALD:  gamma=   0.196
 Maximum number of real-space cells 3x 2x 2
 Maximum number of reciprocal cells 2x 3x 3

 FEWALD executed in parallel
    FEWALD:  cpu time    0.0419: real time    0.0420


----------------------------------------- Iteration    1(   1)  ---------------------------------------


    POTLOK:  cpu time    0.0468: real time    0.0497
    SETDIJ:  cpu time    0.1286: real time    0.1323
     EDDAV:  cpu time    1.2056: real time    1.2445
       DOS:  cpu time    0.0018: real time    0.0018
    --------------------------------------------
      LOOP:  cpu time    1.3907: real time    1.7150

 eigenvalue-minimisations  :  5816
 total energy-change (2. order) : 0.2120265E+04  (-0.1201706E+05)
 number of electron     312.0000000 magnetization 
 augmentation part      312.0000000 magnetization 

 Free energy of the ion-electron system (eV)
  ---------------------------------------------------
  alpha Z        PSCENC =      1565.19267898
  Ewald energy   TEWEN  =    -21540.23945824
  -Hartree energ DENC   =     -7998.84029975
  -exchange      EXHF   =         0.00000000
  -V(xc)+E(xc)   XCENC  =        53.61508128
  PAW double counting   =     24033.31942271   -22599.33685454
  entropy T*S    EENTRO =        -0.00015911
  eigenvalues    EBANDS =      -337.13835776
  atomic energy  EATOM  =     28943.69313547
  Solvation  Ediel_sol  =         0.00000000
  ---------------------------------------------------
  free energy    TOTEN  =      2120.26518904 eV

  energy without entropy =     2120.26534815  energy(sigma->0) =     2120.26524207


--------------------------------------------------------------------------------------------------------




----------------------------------------- Iteration    1(   2)  ---------------------------------------


     EDDAV:  cpu time    1.0918: real time    1.1149
       DOS:  cpu time    0.0009: real time    0.0009
    --------------------------------------------
      LOOP:  cpu time    1.0932: real time    1.2598

 eigenvalue-minimisations  :  5992
 total energy-change (2. order) :-0.2182454E+04  (-0.2113282E+04)
 number of electron     312.0000000 magnetization 
 augmentation part      312.0000000 magnetization 

 Free energy of the ion-electron system (eV)
  ---------------------------------------------------
  alpha Z        PSCENC =      1565.19267898
  Ewald energy   TEWEN  =    -21540.23945824
  -Hartree energ DENC   =     -7998.84029975
  -exchange      EXHF   =         0.00000000
  -V(xc)+E(xc)   XCENC  =        53.61508128
  PAW double counting   =     24033.31942271   -22599.33685454
  entropy T*S    EENTRO =         0.00347905
  eigenvalues    EBANDS =     -2519.59572598
  atomic energy  EATOM  =     28943.69313547
  Solvation  Ediel_sol  =         0.00000000
  ---------------------------------------------------
  free energy    TOTEN  =       -62.18854102 eV

  energy without entropy =      -62.19202007  energy(sigma->0) =      -62.18970070


--------------------------------------------------------------------------------------------------------




----------------------------------------- Iteration    1(   3)  ---------------------------------------


     EDDAV:  cpu time    1.5597: real time    1.6062
       DOS:  cpu time    0.0008: real time    0.0008
    --------------------------------------------
      LOOP:  cpu time    1.5609: real time    1.6360

 eigenvalue-minimisations  :  8912
 total energy-change (2. order) :-0.2722241E+03  (-0.2588363E+03)
 number of electron     312.0000000 magnetization 
 augmentation part      312.0000000 magnetization 

 Free energy of the ion-electron system (eV)
  ---------------------------------------------------
  alpha Z        PSCENC =      1565.19267898
  Ewald energy   TEWEN  =    -21540.23945824
  -Hartree energ DENC   =     -7998.84029975
  -exchange      EXHF   =         0.00000000
  -V(xc)+E(xc)   XCENC  =        53.61508128
  PAW double counting   =     24033.31942271   -22599.33685454
  entropy T*S    EENTRO =         0.00998374
  eigenvalues    EBANDS =     -2791.82632939
  atomic energy  EATOM  =     28943.69313547
  Solvation  Ediel_sol  =         0.00000000
  ---------------------------------------------------
  free energy    TOTEN  =      -334.41263974 eV

  energy without entropy =     -334.42262348  energy(sigma->0) =     -334.41596766


--------------------------------------------------------------------------------------------------------




----------------------------------------- Iteration    1(   4)  ---------------------------------------


     EDDAV:  cpu time    1.7177: real time    1.8013
       DOS:  cpu time    0.0009: real time    0.0009
    --------------------------------------------
      LOOP:  cpu time    1.7195: real time    1.8306

 eigenvalue-minimisations  :  8872
 total energy-change (2. order) :-0.3289882E+02  (-0.3141894E+02)
 number of electron     312.0000000 magnetization 
 augmentation part      312.0000000 magnetization 

 Free energy of the ion-electron system (eV)
  ---------------------------------------------------
  alpha Z        PSCENC =      1565.19267898
  Ewald energy   TEWEN  =    -21540.23945824
  -Hartree energ DENC   =     -7998.84029975
  -exchange      EXHF   =         0.00000000
  -V(xc)+E(xc)   XCENC  =        53.61508128
  PAW double counting   =     24033.31942271   -22599.33685454
  entropy T*S    EENTRO =         0.01953189
  eigenvalues    EBANDS =     -2824.73469853
  atomic energy  EATOM  =     28943.69313547
  Solvation  Ediel_sol  =         0.00000000
  ---------------------------------------------------
  free energy    TOTEN  =      -367.31146073 eV

  energy without entropy =     -367.33099262  energy(sigma->0) =     -367.31797136


--------------------------------------------------------------------------------------------------------




----------------------------------------- Iteration    1(   5)  ---------------------------------------


     EDDAV:  cpu time    1.5363: real time    1.5842
       DOS:  cpu time    0.0009: real time    0.0010
    CHARGE:  cpu time    0.0327: real time    0.0335
    MIXING:  cpu time    0.0013: real time    0.0014
    --------------------------------------------
      LOOP:  cpu time    1.5722: real time    1.6529

 eigenvalue-minimisations  :  8416
 total energy-change (2. order) :-0.3268197E+01  (-0.3204576E+01)
 number of electron     312.0000000 magnetization 
 augmentation part       18.6221706 magnetization 

 Broyden mixing:
  rms(total) = 0.60478E+01    rms(broyden)= 0.60473E+01
  rms(prec ) = 0.63153E+01
  weight for this iteration     100.00

 Free energy of the ion-electron system (eV)
  ---------------------------------------------------
  alpha Z        PSCENC =      1565.19267898
  Ewald energy   TEWEN  =    -21540.23945824
  -Hartree energ DENC   =     -7998.84029975
  -exchange      EXHF   =         0.00000000
  -V(xc)+E(xc)   XCENC  =        53.61508128
  PAW double counting   =     24033.31942271   -22599.33685454
  entropy T*S    EENTRO =         0.02037388
  eigenvalues    EBANDS =     -2828.00373714
  atomic energy  EATOM  =     28943.69313547
  Solvation  Ediel_sol  =         0.00000000
  ---------------------------------------------------
  free energy    TOTEN  =      -370.57965735 eV

  energy without entropy =     -370.60003123  energy(sigma->0) =     -370.58644864


--------------------------------------------------------------------------------------------------------




----------------------------------------- Iteration    1(   6)  ---------------------------------------


    POTLOK:  cpu time    0.0300: real time    0.0306
    SETDIJ:  cpu time    0.0037: real time    0.0037
    EDDIAG:  cpu time    0.0931: real time    0.0959
  RMM-DIIS:  cpu time    0.7835: real time    0.8259
    ORTHCH:  cpu time    0.0135: real time    0.0140
       DOS:  cpu time    0.0009: real time    0.0009
    CHARGE:  cpu time    0.0326: real time    0.0335
    MIXING:  cpu time    0.0013: real time    0.0021
    --------------------------------------------
      LOOP:  cpu time    0.9592: real time    1.0355

 eigenvalue-minimisations  :  7130
 total energy-change (2. order) : 0.1056347E+02  (-0.2268236E+01)
 number of electron     312.0000001 magnetization 
 augmentation part       19.3381017 magnetization 

 Broyden mixing:
  rms(total) = 0.28422E+01    rms(broyden)= 0.28421E+01
  rms(prec ) = 0.30213E+01
  weight for this iteration     100.00

 eigenvalues of (default mixing * dielectric matrix)
  average eigenvalue GAMMA=   1.8033
  1.8033

 Free energy of the ion-electron system (eV)
  ---------------------------------------------------
  alpha Z        PSCENC =      1565.19267898
  Ewald energy   TEWEN  =    -21540.23945824
  -Hartree energ DENC   =     -7814.53383901
  -exchange      EXHF   =         0.00000000
  -V(xc)+E(xc)   XCENC  =        48.17216184
  PAW double counting   =     29368.20393550   -27939.85316299
  entropy T*S    EENTRO =         0.02505779
  eigenvalues    EBANDS =     -2990.67669397
  atomic energy  EATOM  =     28943.69313547
  Solvation  Ediel_sol  =         0.00000000
  ---------------------------------------------------
  free energy    TOTEN  =      -360.01618462 eV

  energy without entropy =     -360.04124241  energy(sigma->0) =     -360.02453721


--------------------------------------------------------------------------------------------------------




----------------------------------------- Iteration    1(   7)  ---------------------------------------


    POTLOK:  cpu time    0.0285: real time    0.0295
    SETDIJ:  cpu time    0.0037: real time    0.0038
    EDDIAG:  cpu time    0.0951: real time    0.0981
  RMM-DIIS:  cpu time    0.7697: real time    0.7961
    ORTHCH:  cpu time    0.0132: real time    0.0137
       DOS:  cpu time    0.0024: real time    0.0025
    CHARGE:  cpu time    0.0325: real time    0.0334
    MIXING:  cpu time    0.0013: real time    0.0013
    --------------------------------------------
      LOOP:  cpu time    0.9469: real time    1.0099

 eigenvalue-minimisations  :  7176
 total energy-change (2. order) : 0.1788386E+01  (-0.2002325E+01)
 number of electron     312.0000000 magnetization 
 augmentation part       19.8002584 magnetization 

 Broyden mixing:
  rms(total) = 0.72374E+00    rms(broyden)= 0.72348E+00
  rms(prec ) = 0.15832E+01
  weight for this iteration     100.00

 eigenvalues of (default mixing * dielectric matrix)
  average eigenvalue GAMMA=   1.2791
  0.7490  1.8093

 Free energy of the ion-electron system (eV)
  ---------------------------------------------------
  alpha Z        PSCENC =      1565.19267898
  Ewald energy   TEWEN  =    -21540.23945824
  -Hartree energ DENC   =     -7721.65869014
  -exchange      EXHF   =         0.00000000
  -V(xc)+E(xc)   XCENC  =        47.70903948
  PAW double counting   =     34711.75431759   -33274.10504411
  entropy T*S    EENTRO =         0.01510702
  eigenvalues    EBANDS =     -3090.58888440
  atomic energy  EATOM  =     28943.69313547
  Solvation  Ediel_sol  =         0.00000000
  ---------------------------------------------------
  free energy    TOTEN  =      -358.22779835 eV

  energy without entropy =     -358.24290537  energy(sigma->0) =     -358.23283402


--------------------------------------------------------------------------------------------------------




----------------------------------------- Iteration    1(   8)  ---------------------------------------


    POTLOK:  cpu time    0.0437: real time    0.0454
    SETDIJ:  cpu time    0.0064: real time    0.0065
    EDDIAG:  cpu time    0.1364: real time    0.1382
  RMM-DIIS:  cpu time    0.8835: real time    0.9074
    ORTHCH:  cpu time    0.0136: real time    0.0136
       DOS:  cpu time    0.0021: real time    0.0021
    CHARGE:  cpu time    0.0570: real time    0.0577
    MIXING:  cpu time    0.0013: real time    0.0014
    --------------------------------------------
      LOOP:  cpu time    1.1450: real time    1.2257

 eigenvalue-minimisations  :  8015
 total energy-change (2. order) : 0.1896102E+01  (-0.3468650E+00)
 number of electron     312.0000000 magnetization 
 augmentation part       19.5604302 magnetization 

 Broyden mixing:
  rms(total) = 0.41535E+00    rms(broyden)= 0.41507E+00
  rms(prec ) = 0.69430E+00
  weight for this iteration     100.00

 eigenvalues of (default mixing * dielectric matrix)
  average eigenvalue GAMMA=   1.2401
  1.6234  1.6234  0.4734

 Free energy of the ion-electron system (eV)
  ---------------------------------------------------
  alpha Z        PSCENC =      1565.19267898
  Ewald energy   TEWEN  =    -21540.23945824
  -Hartree energ DENC   =     -7713.86678301
  -exchange      EXHF   =         0.00000000
  -V(xc)+E(xc)   XCENC  =        47.90870040
  PAW double counting   =     35197.47159553   -33756.29188483
  entropy T*S    EENTRO =         0.01869907
  eigenvalues    EBANDS =     -3100.21838021
  atomic energy  EATOM  =     28943.69313547
  Solvation  Ediel_sol  =         0.00000000
  ---------------------------------------------------
  free energy    TOTEN  =      -356.33169683 eV

  energy without entropy =     -356.35039590  energy(sigma->0) =     -356.33792985


--------------------------------------------------------------------------------------------------------




----------------------------------------- Iteration    1(   9)  ---------------------------------------


    POTLOK:  cpu time    0.0279: real time    0.0288
    SETDIJ:  cpu time    0.0422: real time    0.0430
    EDDIAG:  cpu time    0.0937: real time    0.0967
  RMM-DIIS:  cpu time    0.8321: real time    0.8713
    ORTHCH:  cpu time    0.0133: real time    0.0139
       DOS:  cpu time    0.0054: real time    0.0055
    CHARGE:  cpu time    0.0335: real time    0.0342
    MIXING:  cpu time    0.0013: real time    0.0014
    --------------------------------------------
      LOOP:  cpu time    1.0501: real time    1.1246

 eigenvalue-minimisations  :  7860
 total energy-change (2. order) : 0.1000522E+00  (-0.1467491E+00)
 number of electron     312.0000001 magnetization 
 augmentation part       19.4121227 magnetization 

 Broyden mixing:
  rms(total) = 0.28797E+00    rms(broyden)= 0.28785E+00
  rms(prec ) = 0.41844E+00
  weight for this iteration     100.00

 eigenvalues of (default mixing * dielectric matrix)
  average eigenvalue GAMMA=   1.1700
  1.8906  1.8906  0.5092  0.3896

 Free energy of the ion-electron system (eV)
  ---------------------------------------------------
  alpha Z        PSCENC =      1565.19267898
  Ewald energy   TEWEN  =    -21540.23945824
  -Hartree energ DENC   =     -7721.76439140
  -exchange      EXHF   =         0.00000000
  -V(xc)+E(xc)   XCENC  =        48.61078446
  PAW double counting   =     35297.07627298   -33850.88591194
  entropy T*S    EENTRO =         0.02044415
  eigenvalues    EBANDS =     -3097.93519913
  atomic energy  EATOM  =     28943.69313547
  Solvation  Ediel_sol  =         0.00000000
  ---------------------------------------------------
  free energy    TOTEN  =      -356.23164466 eV

  energy without entropy =     -356.25208881  energy(sigma->0) =     -356.23845938


--------------------------------------------------------------------------------------------------------




----------------------------------------- Iteration    1(  10)  ---------------------------------------


    POTLOK:  cpu time    0.0284: real time    0.0294
    SETDIJ:  cpu time    0.0035: real time    0.0036
    EDDIAG:  cpu time    0.0962: real time    0.0992
  RMM-DIIS:  cpu time    0.8217: real time    0.8804
    ORTHCH:  cpu time    0.0134: real time    0.0136
       DOS:  cpu time    0.0076: real time    0.0077
    CHARGE:  cpu time    0.0552: real time    0.0556
    MIXING:  cpu time    0.0014: real time    0.0014
    --------------------------------------------
      LOOP:  cpu time    1.0281: real time    1.1501

 eigenvalue-minimisations  :  7772
 total energy-change (2. order) : 0.6958522E-01  (-0.3572655E-01)
 number of electron     312.0000001 magnetization 
 augmentation part       19.3168092 magnetization 

 Broyden mixing:
  rms(total) = 0.12076E+00    rms(broyden)= 0.12064E+00
  rms(prec ) = 0.20703E+00
  weight for this iteration     100.00

 eigenvalues of (default mixing * dielectric matrix)
  average eigenvalue GAMMA=   1.1241
  1.9608  1.9608  0.8068  0.5178  0.3745

 Free energy of the ion-electron system (eV)
  ---------------------------------------------------
  alpha Z        PSCENC =      1565.19267898
  Ewald energy   TEWEN  =    -21540.23945824
  -Hartree energ DENC   =     -7740.40747814
  -exchange      EXHF   =         0.00000000
  -V(xc)+E(xc)   XCENC  =        49.85287816
  PAW double counting   =     35482.30019219   -34027.08504687
  entropy T*S    EENTRO =         0.02031268
  eigenvalues    EBANDS =     -3089.48927367
  atomic energy  EATOM  =     28943.69313547
  Solvation  Ediel_sol  =         0.00000000
  ---------------------------------------------------
  free energy    TOTEN  =      -356.16205944 eV

  energy without entropy =     -356.18237212  energy(sigma->0) =     -356.16883033


--------------------------------------------------------------------------------------------------------




----------------------------------------- Iteration    1(  11)  ---------------------------------------


    POTLOK:  cpu time    0.0284: real time    0.0294
    SETDIJ:  cpu time    0.0061: real time    0.0062
    EDDIAG:  cpu time    0.1039: real time    0.1069
  RMM-DIIS:  cpu time    0.8483: real time    0.8786
    ORTHCH:  cpu time    0.0133: real time    0.0136
       DOS:  cpu time    0.0037: real time    0.0038
    CHARGE:  cpu time    0.0316: real time    0.0323
    MIXING:  cpu time    0.0014: real time    0.0015
    --------------------------------------------
      LOOP:  cpu time    1.0372: real time    1.1035

 eigenvalue-minimisations  :  7874
 total energy-change (2. order) : 0.2180829E-01  (-0.1198009E-01)
 number of electron     312.0000000 magnetization 
 augmentation part       19.2950446 magnetization 

 Broyden mixing:
  rms(total) = 0.63919E-01    rms(broyden)= 0.63860E-01
  rms(prec ) = 0.10987E+00
  weight for this iteration     100.00

 eigenvalues of (default mixing * dielectric matrix)
  average eigenvalue GAMMA=   1.1005
  2.2195  1.7926  1.2328  0.4965  0.4965  0.3654

 Free energy of the ion-electron system (eV)
  ---------------------------------------------------
  alpha Z        PSCENC =      1565.19267898
  Ewald energy   TEWEN  =    -21540.23945824
  -Hartree energ DENC   =     -7741.23843935
  -exchange      EXHF   =         0.00000000
  -V(xc)+E(xc)   XCENC  =        50.10334908
  PAW double counting   =     35621.32972177   -34162.87386373
  entropy T*S    EENTRO =         0.02078887
  eigenvalues    EBANDS =     -3092.12816400
  atomic energy  EATOM  =     28943.69313547
  Solvation  Ediel_sol  =         0.00000000
  ---------------------------------------------------
  free energy    TOTEN  =      -356.14025115 eV

  energy without entropy =     -356.16104002  energy(sigma->0) =     -356.14718077


--------------------------------------------------------------------------------------------------------




----------------------------------------- Iteration    1(  12)  ---------------------------------------


    POTLOK:  cpu time    0.0278: real time    0.0294
    SETDIJ:  cpu time    0.0036: real time    0.0036
    EDDIAG:  cpu time    0.1022: real time    0.1054
  RMM-DIIS:  cpu time    0.8278: real time    0.8732
    ORTHCH:  cpu time    0.0133: real time    0.0137
       DOS:  cpu time    0.0013: real time    0.0013
    CHARGE:  cpu time    0.0313: real time    0.0320
    MIXING:  cpu time    0.0015: real time    0.0015
    --------------------------------------------
      LOOP:  cpu time    1.0092: real time    1.1122

 eigenvalue-minimisations  :  7925
 total energy-change (2. order) : 0.1886011E-02  (-0.3976304E-02)
 number of electron     312.0000000 magnetization 
 augmentation part       19.2902083 magnetization 

 Broyden mixing:
  rms(total) = 0.39241E-01    rms(broyden)= 0.39225E-01
  rms(prec ) = 0.65505E-01
  weight for this iteration     100.00

 eigenvalues of (default mixing * dielectric matrix)
  average eigenvalue GAMMA=   1.0902
  2.3151  1.6592  1.6592  0.6265  0.5808  0.4364  0.3541

 Free energy of the ion-electron system (eV)
  ---------------------------------------------------
  alpha Z        PSCENC =      1565.19267898
  Ewald energy   TEWEN  =    -21540.23945824
  -Hartree energ DENC   =     -7742.17079615
  -exchange      EXHF   =         0.00000000
  -V(xc)+E(xc)   XCENC  =        50.18427911
  PAW double counting   =     35721.10095971   -34261.06322996
  entropy T*S    EENTRO =         0.02077297
  eigenvalues    EBANDS =     -3092.85670703
  atomic energy  EATOM  =     28943.69313547
  Solvation  Ediel_sol  =         0.00000000
  ---------------------------------------------------
  free energy    TOTEN  =      -356.13836514 eV

  energy without entropy =     -356.15913811  energy(sigma->0) =     -356.14528946


--------------------------------------------------------------------------------------------------------




----------------------------------------- Iteration    1(  13)  ---------------------------------------


    POTLOK:  cpu time    0.0279: real time    0.0288
    SETDIJ:  cpu time    0.0035: real time    0.0036
    EDDIAG:  cpu time    0.0899: real time    0.0928
  RMM-DIIS:  cpu time    0.8005: real time    0.8463
    ORTHCH:  cpu time    0.0133: real time    0.0138
       DOS:  cpu time    0.0024: real time    0.0025
    CHARGE:  cpu time    0.0319: real time    0.0326
    MIXING:  cpu time    0.0015: real time    0.0016
    --------------------------------------------
      LOOP:  cpu time    0.9716: real time    1.0651

 eigenvalue-minimisations  :  8056
 total energy-change (2. order) : 0.9405196E-03  (-0.1535053E-02)
 number of electron     312.0000001 magnetization 
 augmentation part       19.2908600 magnetization 

 Broyden mixing:
  rms(total) = 0.22918E-01    rms(broyden)= 0.22911E-01
  rms(prec ) = 0.31118E-01
  weight for this iteration     100.00

 eigenvalues of (default mixing * dielectric matrix)
  average eigenvalue GAMMA=   1.1066
  2.4616  1.9782  1.6462  0.9711  0.5516  0.5064  0.3840  0.3541

 Free energy of the ion-electron system (eV)
  ---------------------------------------------------
  alpha Z        PSCENC =      1565.19267898
  Ewald energy   TEWEN  =    -21540.23945824
  -Hartree energ DENC   =     -7742.79166225
  -exchange      EXHF   =         0.00000000
  -V(xc)+E(xc)   XCENC  =        50.20928507
  PAW double counting   =     35778.60455511   -34317.67225634
  entropy T*S    EENTRO =         0.02032593
  eigenvalues    EBANDS =     -3093.15402836
  atomic energy  EATOM  =     28943.69313547
  Solvation  Ediel_sol  =         0.00000000
  ---------------------------------------------------
  free energy    TOTEN  =      -356.13742462 eV

  energy without entropy =     -356.15775055  energy(sigma->0) =     -356.14419993


--------------------------------------------------------------------------------------------------------




----------------------------------------- Iteration    1(  14)  ---------------------------------------


    POTLOK:  cpu time    0.0279: real time    0.0289
    SETDIJ:  cpu time    0.0036: real time    0.0037
    EDDIAG:  cpu time    0.1140: real time    0.1173
  RMM-DIIS:  cpu time    0.9194: real time    0.9631
    ORTHCH:  cpu time    0.0144: real time    0.0145
       DOS:  cpu time    0.0082: real time    0.0082
    CHARGE:  cpu time    0.0382: real time    0.0383
    MIXING:  cpu time    0.0017: real time    0.0017
    --------------------------------------------
      LOOP:  cpu time    1.1281: real time    1.2268

 eigenvalue-minimisations  :  8166
 total energy-change (2. order) :-0.3487222E-03  (-0.7101843E-03)
 number of electron     312.0000001 magnetization 
 augmentation part       19.2901349 magnetization 

 Broyden mixing:
  rms(total) = 0.10484E-01    rms(broyden)= 0.10480E-01
  rms(prec ) = 0.14986E-01
  weight for this iteration     100.00

 eigenvalues of (default mixing * dielectric matrix)
  average eigenvalue GAMMA=   1.0931
  2.5963  2.1000  1.5650  1.1644  0.6103  0.6103  0.4581  0.3827  0.3507

 Free energy of the ion-electron system (eV)
  ---------------------------------------------------
  alpha Z        PSCENC =      1565.19267898
  Ewald energy   TEWEN  =    -21540.23945824
  -Hartree energ DENC   =     -7742.89715275
  -exchange      EXHF   =         0.00000000
  -V(xc)+E(xc)   XCENC  =        50.20789436
  PAW double counting   =     35812.07882542   -34350.41927161
  entropy T*S    EENTRO =         0.02058547
  eigenvalues    EBANDS =     -3093.77501044
  atomic energy  EATOM  =     28943.69313547
  Solvation  Ediel_sol  =         0.00000000
  ---------------------------------------------------
  free energy    TOTEN  =      -356.13777334 eV

  energy without entropy =     -356.15835881  energy(sigma->0) =     -356.14463516


--------------------------------------------------------------------------------------------------------




----------------------------------------- Iteration    1(  15)  ---------------------------------------


    POTLOK:  cpu time    0.0279: real time    0.0288
    SETDIJ:  cpu time    0.0037: real time    0.0038
    EDDIAG:  cpu time    0.1257: real time    0.1291
  RMM-DIIS:  cpu time    1.0555: real time    1.0770
    ORTHCH:  cpu time    0.0156: real time    0.0157
       DOS:  cpu time    0.0009: real time    0.0009
    CHARGE:  cpu time    0.0327: real time    0.0328
    MIXING:  cpu time    0.0020: real time    0.0020
    --------------------------------------------
      LOOP:  cpu time    1.2645: real time    1.3295

 eigenvalue-minimisations  :  7947
 total energy-change (2. order) :-0.1216176E-03  (-0.3072624E-03)
 number of electron     312.0000001 magnetization 
 augmentation part       19.2882602 magnetization 

 Broyden mixing:
  rms(total) = 0.39968E-02    rms(broyden)= 0.39922E-02
  rms(prec ) = 0.64709E-02
  weight for this iteration     100.00

 eigenvalues of (default mixing * dielectric matrix)
  average eigenvalue GAMMA=   1.0829
  2.6026  2.1055  1.5872  1.3108  0.9229  0.5976  0.4965  0.4785  0.3762  0.3512

 Free energy of the ion-electron system (eV)
  ---------------------------------------------------
  alpha Z        PSCENC =      1565.19267898
  Ewald energy   TEWEN  =    -21540.23945824
  -Hartree energ DENC   =     -7743.53143717
  -exchange      EXHF   =         0.00000000
  -V(xc)+E(xc)   XCENC  =        50.22912225
  PAW double counting   =     35822.33099281   -34360.32422501
  entropy T*S    EENTRO =         0.02049802
  eigenvalues    EBANDS =     -3093.50920206
  atomic energy  EATOM  =     28943.69313547
  Solvation  Ediel_sol  =         0.00000000
  ---------------------------------------------------
  free energy    TOTEN  =      -356.13789496 eV

  energy without entropy =     -356.15839298  energy(sigma->0) =     -356.14472763


--------------------------------------------------------------------------------------------------------




----------------------------------------- Iteration    1(  16)  ---------------------------------------


    POTLOK:  cpu time    0.0298: real time    0.0306
    SETDIJ:  cpu time    0.0037: real time    0.0037
    EDDIAG:  cpu time    0.1260: real time    0.1265
  RMM-DIIS:  cpu time    0.8496: real time    0.8536
    ORTHCH:  cpu time    0.0144: real time    0.0144
       DOS:  cpu time    0.0057: real time    0.0057
    CHARGE:  cpu time    0.0468: real time    0.0470
    MIXING:  cpu time    0.0021: real time    0.0021
    --------------------------------------------
      LOOP:  cpu time    1.0787: real time    1.1186

 eigenvalue-minimisations  :  6525
 total energy-change (2. order) :-0.9500997E-04  (-0.1360696E-03)
 number of electron     312.0000001 magnetization 
 augmentation part       19.2876445 magnetization 

 Broyden mixing:
  rms(total) = 0.23460E-02    rms(broyden)= 0.23447E-02
  rms(prec ) = 0.47779E-02
  weight for this iteration     100.00

 eigenvalues of (default mixing * dielectric matrix)
  average eigenvalue GAMMA=   1.0509
  2.6260  2.1010  1.6333  1.3801  0.9874  0.5455  0.5455  0.5503  0.4637  0.3513
  0.3754

 Free energy of the ion-electron system (eV)
  ---------------------------------------------------
  alpha Z        PSCENC =      1565.19267898
  Ewald energy   TEWEN  =    -21540.23945824
  -Hartree energ DENC   =     -7743.65362042
  -exchange      EXHF   =         0.00000000
  -V(xc)+E(xc)   XCENC  =        50.23217857
  PAW double counting   =     35827.94378041   -34365.84402171
  entropy T*S    EENTRO =         0.02053713
[...]
    110       5.7550      2.00000
    111       5.8139      2.00000
    112       5.8953      2.00000
    113       5.9257      2.00000
    114       6.0006      2.00000
    115       6.0202      2.00000
    116       6.0811      2.00000
    117       6.1904      2.00000
    118       6.2959      2.00000
    119       6.3618      2.00000
    120       6.4198      2.00000
    121       6.4439      2.00000
    122       6.4708      2.00000
    123       6.4947      2.00000
    124       6.5207      2.00000
    125       6.5650      2.00000
    126       6.5989      2.00000
    127       6.6056      2.00000
    128       6.6598      2.00000
    129       6.6928      2.00000
    130       6.7536      2.00000
    131       6.8101      2.00000
    132       6.8361      2.00000
    133       6.8511      2.00000
    134       6.8785      2.00000
    135       6.9072      2.00000
    136       6.9838      2.00000
    137       7.0252      2.00000
    138       7.0731      2.00000
    139       7.1001      2.00000
    140       7.1283      2.00000
    141       7.1892      2.00000
    142       7.2204      2.00000
    143       7.2618      2.00001
    144       7.2770      2.00001
    145       7.3337      2.00011
    146       7.3725      2.00044
    147       7.4040      2.00126
    148       7.4394      2.00363
    149       7.4609      2.00649
    150       7.4852      2.01179
    151       7.5211      2.02505
    152       7.5639      2.04923
    153       7.6207      2.07047
    154       7.6410      2.05948
    155       7.6632      2.02429
    156       7.7075      1.84832
    157       7.7666      1.35524
    158       7.8153      0.81523
    159       7.8256      0.70380
    160       7.8866      0.17352
    161       7.9273     -0.00609
    162       7.9775     -0.07055
    163       8.0119     -0.06204
    164       8.0372     -0.04714
    165       8.0855     -0.02107
    166       8.1116     -0.01204
    167       8.1332     -0.00712
    168       8.1938     -0.00125
    169       8.2228     -0.00048
    170       8.2487     -0.00019
    171       8.2731     -0.00007
    172       8.3118     -0.00001
    173       8.3921     -0.00000
    174       8.4517     -0.00000
    175       8.4819     -0.00000
    176       8.5539     -0.00000
    177       8.5990     -0.00000
    178       8.6701     -0.00000
    179       8.7417     -0.00000
    180       8.8044     -0.00000
    181       8.9418     -0.00000
    182       9.0884     -0.00000
    183       9.1650     -0.00000
    184       9.5348     -0.00000
    185       9.6097     -0.00000
    186       9.6744     -0.00000
    187       9.7142     -0.00000
    188       9.7791     -0.00000


--------------------------------------------------------------------------------------------------------


 soft charge-density along one line, spin component           1
         0         1         2         3         4         5         6         7         8         9
 total charge-density along one line
 
 pseudopotential strength for first ion, spin component:           1
 13.419 -26.191  -0.000  -0.001  -0.000  -0.001  -0.001  -0.002
-26.191  13.920   0.002   0.002   0.003  -0.001  -0.001  -0.000
 -0.000   0.002  -6.430  -0.000  -0.000   5.134   0.003   0.003
 -0.001   0.002  -0.000  -6.426   0.003   0.003   5.127  -0.003
 -0.000   0.003  -0.000   0.003  -6.433   0.003  -0.003   5.140
 -0.001  -0.001   5.134   0.003   0.003   8.337  -0.002  -0.001
 -0.001  -0.001   0.003   5.127  -0.003  -0.002   8.341   0.002
 -0.002  -0.000   0.003  -0.003   5.140  -0.001   0.002   8.333
 -0.001  -0.002   0.001  -0.000   0.001  -0.001   0.000  -0.001
 -0.001  -0.003   0.000   0.001  -0.000  -0.001  -0.001   0.000
  0.004   0.003   0.000  -0.000  -0.000  -0.000  -0.000   0.001
  0.003   0.001  -0.000   0.001   0.000   0.000  -0.001  -0.001
 -0.002  -0.001   0.000   0.000   0.001  -0.000  -0.000  -0.001
 -0.001  -0.003   0.001  -0.000   0.001  -0.002   0.000  -0.001
 -0.001  -0.003   0.000   0.001  -0.000  -0.001  -0.001   0.000
  0.005   0.004   0.000  -0.000  -0.001  -0.000  -0.001   0.001
  0.004   0.002  -0.000   0.001   0.001   0.000  -0.002  -0.001
 -0.002  -0.002   0.000   0.000   0.001   0.000  -0.000  -0.001
 total augmentation occupancy for first ion, spin component:           1
  1.999  -0.024   0.000   0.000  -0.000   0.000   0.001  -0.000  -0.006  -0.017   0.008  -0.003  -0.009   0.005   0.014  -0.008
 -0.024   1.447   0.004   0.005  -0.004  -0.007  -0.005   0.005  -0.021  -0.079   0.049  -0.047  -0.014   0.003   0.035  -0.028
  0.000   0.004   2.002   0.001   0.001  -0.023  -0.001  -0.001  -0.001   0.012  -0.005   0.002  -0.014  -0.000  -0.006   0.004
  0.000   0.005   0.001   2.003   0.001  -0.001  -0.027  -0.002   0.000   0.002   0.013   0.000  -0.002   0.000   0.004  -0.008
 -0.000  -0.004   0.001   0.001   2.002  -0.001  -0.002  -0.024  -0.009  -0.001  -0.004   0.010   0.005   0.008   0.000   0.003
  0.000  -0.007  -0.023  -0.001  -0.001   0.039   0.000   0.001   0.002  -0.025   0.002  -0.004   0.024  -0.001   0.014  -0.003
  0.001  -0.005  -0.001  -0.027  -0.002   0.000   0.044   0.002  -0.000  -0.041  -0.015   0.002   0.002  -0.000   0.022   0.010
 -0.000   0.005  -0.001  -0.002  -0.024   0.001   0.002   0.039  -0.011   0.001   0.001  -0.024   0.004   0.006  -0.001   0.000
 -0.006  -0.021  -0.001   0.000  -0.009   0.002  -0.000  -0.011   4.259   0.169   0.018  -0.030   0.030  -2.227  -0.087  -0.008
 -0.017  -0.079   0.012   0.002  -0.001  -0.025  -0.041   0.001   0.169   4.638  -0.137  -0.060   0.237  -0.087  -2.427   0.073
  0.008   0.049  -0.005   0.013  -0.004   0.002  -0.015   0.001   0.018  -0.137   4.255  -0.089   0.044  -0.007   0.072  -2.310
 -0.003  -0.047   0.002   0.000   0.010  -0.004   0.002  -0.024  -0.030  -0.060  -0.089   4.285  -0.127   0.010   0.018   0.040
 -0.009  -0.014  -0.014  -0.002   0.005   0.024   0.002   0.004   0.030   0.237   0.044  -0.127   4.084  -0.008  -0.125  -0.029
  0.005   0.003  -0.000   0.000   0.008  -0.001  -0.000   0.006  -2.227  -0.087  -0.007   0.010  -0.008   1.178   0.045   0.003
  0.014   0.035  -0.006   0.004   0.000   0.014   0.022  -0.001  -0.087  -2.427   0.072   0.018  -0.125   0.045   1.286  -0.039
 -0.008  -0.028   0.004  -0.008   0.003  -0.003   0.010   0.000  -0.008   0.073  -2.310   0.040  -0.029   0.003  -0.039   1.263
  0.001   0.022  -0.001  -0.001  -0.004   0.001  -0.001   0.012   0.010   0.018   0.039  -2.247   0.063  -0.003  -0.003  -0.017
  0.007   0.012   0.008   0.001  -0.005  -0.016  -0.001  -0.002  -0.008  -0.125  -0.029   0.063  -2.219   0.001   0.066   0.018


------------------------ aborting loop because EDIFF is reached ----------------------------------------


    CHARGE:  cpu time    0.0290: real time    0.0297
    FORLOC:  cpu time    0.0133: real time    0.0135
    FORNL :  cpu time    0.3165: real time    0.3278
    STRESS:  cpu time    0.9609: real time    0.9991
    FORCOR:  cpu time    0.0426: real time    0.0437
    FORHAR:  cpu time    0.0183: real time    0.0188
    MIXING:  cpu time    0.0013: real time    0.0013
    OFIELD:  cpu time    0.0000: real time    0.0000

  FORCE on cell =-STRESS in cart. coord.  units (eV):
  Direction    XX          YY          ZZ          XY          YZ          ZX
  --------------------------------------------------------------------------------------
  Alpha Z  1566.81691  1566.81691  1566.81691
  Ewald   -6890.61399 -7831.88850 -6831.21579   313.90601   303.39121  -144.74577
  Hartree  2887.69470  1953.58838  2894.15932   298.85019   261.32333  -130.46829
  E(xc)   -1363.27006 -1363.50867 -1363.20760    -0.04129     0.25546     0.62991
  Local   -1556.57831   314.37376 -1625.18091  -611.36551  -565.56433   277.65719
  n-local  -275.94669  -274.19429  -277.18480     4.45754    -2.82548     0.23870
  augment   252.77593   253.01318   252.99674    -0.85976     0.42300    -0.03897
  Kinetic  5379.12162  5381.87498  5382.89024    -4.96257     3.00168    -3.26388
  Fock        0.00000     0.00000     0.00000     0.00000     0.00000     0.00000
  -------------------------------------------------------------------------------------
  Total       0.00010     0.07577     0.07412    -0.01539     0.00487     0.00889
  in kB       0.00022     0.16512     0.16152    -0.03353     0.01061     0.01937
  external pressure =        0.11 kB  Pullay stress =        0.00 kB


 VOLUME and BASIS-vectors are now :
 -----------------------------------------------------------------------------
  energy-cutoff  :      300.00
  volume of cell :      735.19
      direct lattice vectors                 reciprocal lattice vectors
     7.003859357  0.046607301  0.016204045     0.142785538 -0.000952537 -0.000334990
     0.068218965 10.225158215  0.002517876    -0.000650795  0.097802343 -0.000013871
     0.024096477  0.001616369 10.266253432    -0.000225210 -0.000022483  0.097407050

  length of vectors
     7.004033174 10.225386090 10.266281838     0.142789108  0.097804509  0.097407313


 FORCES acting on ions
    electron-ion (+dipol)            ewald-force                    non-local-force                 convergence-correction
 -----------------------------------------------------------------------------------------------
   0.582E+02 0.132E+03 -.203E+03   -.579E+02 -.133E+03 0.202E+03   -.323E+00 0.362E+00 0.372E+00   -.123E-01 -.255E-02 0.695E-02
   -.620E+02 0.204E+03 0.257E+03   0.625E+02 -.204E+03 -.256E+03   -.502E+00 -.327E+00 -.324E+00   -.277E-03 -.154E-01 -.203E-01
   0.138E+02 0.136E+03 -.292E+03   -.132E+02 -.136E+03 0.291E+03   -.610E+00 -.345E+00 0.431E+00   -.254E-02 0.652E-02 0.275E-01
   -.295E+02 -.525E+02 0.264E+03   0.291E+02 0.527E+02 -.263E+03   0.446E+00 -.193E+00 -.507E+00   0.898E-03 -.955E-02 -.688E-02
   -.828E+01 -.318E+02 -.946E+02   0.803E+01 0.318E+02 0.943E+02   0.252E+00 0.532E-01 0.316E+00   0.151E-02 0.257E-02 0.259E-02
   0.658E+02 -.555E+02 0.506E+02   -.652E+02 0.555E+02 -.511E+02   -.510E+00 -.584E-01 0.548E+00   -.814E-02 0.363E-02 0.899E-02
   -.922E+02 -.320E+03 0.122E+02   0.915E+02 0.320E+03 -.128E+02   0.632E+00 0.104E+00 0.575E+00   0.107E-01 -.146E-02 0.121E-01
   -.290E+02 -.106E+03 -.844E+02   0.290E+02 0.106E+03 0.845E+02   -.174E-01 0.172E+00 -.353E-01   -.418E-02 0.561E-02 -.102E-01
   0.143E+02 0.565E+02 0.746E+01   -.140E+02 -.562E+02 -.757E+01   -.275E+00 -.277E+00 0.117E+00   0.144E-02 -.153E-02 -.545E-02
   0.131E+02 0.739E+02 0.950E+02   -.133E+02 -.737E+02 -.949E+02   0.251E+00 -.165E+00 -.155E+00   0.800E-04 -.686E-02 -.506E-02
   0.445E+02 -.107E+03 0.421E+02   -.440E+02 0.107E+03 -.417E+02   -.558E+00 -.486E-01 -.442E+00   0.123E-02 0.740E-02 -.870E-03
   0.711E+02 -.519E+02 -.964E+01   -.704E+02 0.517E+02 0.919E+01   -.665E+00 0.159E+00 0.450E+00   -.153E-02 -.555E-03 0.214E-02
   0.132E+02 -.948E+02 -.414E+02   -.132E+02 0.945E+02 0.413E+02   0.297E-01 0.337E+00 0.560E-01   0.162E-02 0.207E-02 -.294E-02
   -.138E+02 0.715E+02 -.858E+02   0.134E+02 -.715E+02 0.854E+02   0.440E+00 0.572E-01 0.335E+00   0.772E-03 0.937E-03 0.824E-02
   0.150E+02 -.934E+02 0.250E+02   -.144E+02 0.934E+02 -.250E+02   -.630E+00 0.544E-01 -.149E-01   -.934E-03 0.159E-02 -.669E-02
   -.915E+02 0.259E+02 0.203E+01   0.907E+02 -.261E+02 -.138E+01   0.767E+00 0.190E+00 -.649E+00   -.938E-03 0.313E-02 -.204E-02
   0.162E+02 0.995E+02 0.296E+02   -.157E+02 -.997E+02 -.290E+02   -.495E+00 0.175E+00 -.607E+00   0.296E-02 -.332E-02 -.406E-02
   0.245E+02 0.732E+02 -.275E+02   -.256E+02 -.731E+02 0.279E+02   0.107E+01 -.337E-01 -.406E+00   -.299E-03 -.214E-03 0.319E-02
   -.286E+02 0.145E+02 0.202E+02   0.282E+02 -.144E+02 -.203E+02   0.370E+00 -.968E-01 0.148E+00   0.270E-02 0.744E-03 0.168E-02
   -.339E+02 0.333E+02 -.588E+02   0.338E+02 -.330E+02 0.582E+02   0.761E-01 -.248E+00 0.507E+00   0.372E-02 -.114E-02 0.244E-02
   -.426E+02 -.948E+02 0.410E+02   0.421E+02 0.948E+02 -.404E+02   0.453E+00 0.298E-01 -.586E+00   -.151E-02 0.946E-02 -.127E-02
   -.379E+02 0.922E+02 -.588E+01   0.387E+02 -.919E+02 0.642E+01   -.773E+00 -.347E+00 -.551E+00   0.657E-03 0.205E-02 0.485E-02
   0.650E+02 0.859E+01 -.227E+02   -.639E+02 -.867E+01 0.228E+02   -.104E+01 0.813E-01 -.132E+00   -.954E-03 0.127E-02 -.107E-03
   0.438E+02 -.113E+03 0.111E+01   -.434E+02 0.113E+03 -.164E+01   -.416E+00 -.654E-01 0.521E+00   -.400E-02 -.682E-03 0.479E-02
   -.640E+02 0.617E+01 0.435E+02   0.630E+02 -.658E+01 -.441E+02   0.104E+01 0.413E+00 0.600E+00   -.644E-03 0.104E-02 -.163E-02
   0.242E+02 0.919E+01 0.141E+03   -.238E+02 -.914E+01 -.140E+03   -.379E+00 -.441E-01 -.805E+00   -.121E-03 -.116E-01 -.713E-02
   -.153E+03 -.169E+03 -.911E+02   0.152E+03 0.169E+03 0.910E+02   0.125E+01 0.725E+00 0.905E-01   0.270E-02 -.491E-02 0.864E-02
   0.242E+03 -.252E+01 0.763E+02   -.240E+03 0.295E+01 -.758E+02   -.131E+01 -.446E+00 -.563E+00   -.390E-02 0.152E-01 -.610E-02
   -.240E+02 0.288E+03 0.140E+03   0.235E+02 -.288E+03 -.139E+03   0.521E+00 0.304E+00 -.113E+01   -.123E-01 -.140E-01 -.158E-01
   0.500E+02 -.273E+03 -.181E+02   -.494E+02 0.274E+03 0.182E+02   -.632E+00 -.618E+00 -.197E+00   -.931E-03 0.130E-01 0.234E-01
   -.448E+02 -.298E+03 0.828E+02   0.443E+02 0.299E+03 -.833E+02   0.565E+00 -.615E+00 0.526E+00   0.533E-03 0.106E-01 0.151E-01
   0.181E+02 -.114E+02 -.112E+03   -.177E+02 0.113E+02 0.113E+03   -.367E+00 0.167E+00 -.610E+00   -.681E-03 -.874E-02 0.513E-02
   -.232E+02 -.205E+03 0.123E+03   0.223E+02 0.204E+03 -.123E+03   0.902E+00 0.858E+00 0.210E+00   0.363E-02 0.816E-02 -.235E-01
   -.261E+02 0.219E+03 0.544E+02   0.255E+02 -.219E+03 -.549E+02   0.595E+00 -.323E+00 0.531E+00   -.147E-02 -.696E-02 -.221E-01
   0.225E+03 0.261E+03 -.200E+03   -.225E+03 -.262E+03 0.199E+03   0.951E-01 0.534E+00 0.728E+00   -.436E-02 -.163E-01 0.639E-02
   -.213E+03 0.274E+03 -.161E+03   0.213E+03 -.274E+03 0.160E+03   0.239E-01 0.335E-01 0.826E+00   -.460E-03 -.142E-01 0.466E-03
 -----------------------------------------------------------------------------------------------
   -.244E+00 -.534E+00 -.179E+00   0.142E-12 0.114E-12 -.568E-13   0.274E+00 0.559E+00 0.176E+00   -.273E-01 -.250E-01 0.231E-02
 
 
 POSITION                                       TOTAL-FORCE (eV/Angst)
 -----------------------------------------------------------------------------------
      5.49154      8.66666      5.12515         0.000876      0.001934     -0.003541
      0.10310      0.05791      0.08237        -0.000317     -0.000001     -0.002621
      5.41082      1.72258      5.12505         0.000414      0.001446     -0.003424
      5.16608      1.79835      1.76151        -0.002569     -0.000599      0.003492
      3.48675      3.40966      6.72964        -0.000110     -0.000624     -0.000526
      5.48547      8.64545      8.47574        -0.000476      0.000081      0.002692
      1.69191      5.19867      5.08046        -0.000137      0.000974     -0.001556
      5.18664      5.03831      8.63824        -0.000047     -0.000868      0.001368
      5.34000      1.75320      8.54288         0.000153      0.000189      0.001895
      3.43105      0.05691     10.24417        -0.000583     -0.000223      0.001140
      1.92965      5.20438      1.74536         0.001649     -0.002085      0.002041
      3.74934      6.85887      6.71075        -0.000058     -0.000260     -0.000144
      1.83491      5.21404      8.60751        -0.001797     -0.003322     -0.000459
      1.67785      1.69583      4.95962        -0.000567     -0.001360      0.001082
      0.11125      3.40637      0.08618        -0.002421      0.000861      0.002327
      6.81121      6.79579      0.20943         0.001748     -0.000582     -0.001968
      1.87168      8.39762      1.79561         0.001570      0.000224      0.001859
      3.33813      0.02932      6.89378        -0.002122      0.000352     -0.000612
      1.75816      8.29965      8.56507         0.000651      0.004345     -0.001930
      1.73899      8.51373      5.03795         0.001119      0.000125     -0.003156
      5.11199      5.08434      1.80059         0.001621     -0.004256      0.005550
      0.31888      0.12627      6.96169         0.001678      0.001684     -0.000417
      3.74283      6.84593      3.51484         0.001962      0.000015     -0.002174
      5.41346      5.10078      5.05728         0.000159     -0.004161     -0.003448
      6.85354      6.78421      3.31919         0.000189      0.000882      0.001131
      1.82633      1.74827      1.89141        -0.000612      0.000656      0.003410
      6.87183      6.71322      6.81104         0.000594      0.001477      0.001268
      3.74540      6.95110      0.09577         0.001353     -0.003476     -0.000743
      5.22730      8.57437      1.82478         0.001595      0.001521      0.002950
      3.58371      3.51490      3.55643         0.000017      0.005210     -0.001841
      6.97997      3.56020      3.32497        -0.000653      0.004239      0.001013
      0.09725      3.42308      6.92348        -0.000230      0.001841     -0.002161
      3.33784      3.26129      0.02209        -0.002852      0.002654      0.001759
      1.71701      1.84678      8.51726        -0.006299      0.000089     -0.001135
      3.60557     10.17016      3.37293         0.000520     -0.004377     -0.003866
      7.06917     10.24757      3.19242         0.003981     -0.004606      0.000745
 -----------------------------------------------------------------------------------
    total drift:                                0.002705     -0.000259     -0.001090


--------------------------------------------------------------------------------------------------------



  FREE ENERGIE OF THE ION-ELECTRON SYSTEM (eV)
  ---------------------------------------------------
  free  energy   TOTEN  =      -356.14325874 eV

  energy  without entropy=     -356.16456275  energy(sigma->0) =     -356.15036008
 
 d Force = 0.3958219E-04[ 0.230E-04, 0.562E-04]  d Energy = 0.5272856E-04-0.131E-04
 d Force = 0.3527094E-01[ 0.348E-01, 0.357E-01]  d Ewald  =-0.9732834E-01 0.133E+00


--------------------------------------------------------------------------------------------------------


    POTLOK:  cpu time    0.0712: real time    0.0728


--------------------------------------------------------------------------------------------------------


 Conjugate gradient step on ions:
 trial-energy change:   -0.000053  1 .order   -0.000069   -0.000102   -0.000036
  (g-gl).g = 0.281E-04      g.g   = 0.295E-04  gl.gl    = 0.321E-04
 g(Force)  = 0.121E-04   g(Stress)= 0.174E-04 ortho     = 0.243E-05
 gamma     =   0.87415
 trial     =   3.23534
 opt step  =   4.98091  (harmonic =   4.98091) maximal distance =0.00117152
 next E    =  -356.143285   (d E  =  -0.00008)


--------------------------------------------------------------------------------------------------------


  
 reached required accuracy - stopping structural energy minimisation
     LOOP+:  cpu time    5.7388: real time    6.5831
    4ORBIT:  cpu time    0.0000: real time    0.0000

 total amount of memory used by VASP on root node    68754. kBytes
========================================================================

   base      :      30000. kBytes
   nonlr-proj:      10411. kBytes
   fftplans  :       2814. kBytes
   grid      :       5360. kBytes
   one-center:        124. kBytes
   wavefun   :      20045. kBytes
 
  
  
 General timing and accounting informations for this job:
 ========================================================
  
                  Total CPU time used (sec):      171.113
                            User time (sec):      169.658
                          System time (sec):        1.455
                         Elapsed time (sec):      197.987
  
                   Maximum memory used (kb):      267396.
                   Average memory used (kb):           0.
  
                          Minor page faults:       123908
                          Major page faults:           31
                 Voluntary context switches:         7226
